11433190
  -OEChem-05262008352D

 70 74  0     1  0  0  0  0  0999 V2000
    8.3152    4.6374    0.0000 Cl  0  0  0  0  0  0  0  0  0  0  0  0
    2.6130    4.6374    0.0000 Cl  0  0  0  0  0  0  0  0  0  0  0  0
    7.4321   -0.8368    0.0000 O   0  0  0  0  0  0  0  0  0  0  0  0
    3.7320   -1.1374    0.0000 O   0  0  0  0  0  0  0  0  0  0  0  0
   10.5187   -0.9292    0.0000 O   0  0  0  0  0  0  0  0  0  0  0  0
    5.4641   -4.1374    0.0000 O   0  0  0  0  0  0  0  0  0  0  0  0
    6.2731    0.4503    0.0000 N   0  0  0  0  0  0  0  0  0  0  0  0
    4.6551    0.4503    0.0000 N   0  0  0  0  0  0  0  0  0  0  0  0
    8.2023    0.3492    0.0000 N   0  0  0  0  0  0  0  0  0  0  0  0
   10.1586    0.7650    0.0000 N   0  0  0  0  0  0  0  0  0  0  0  0
    5.9641    1.4014    0.0000 C   0  0  1  0  0  0  0  0  0  0  0  0
    4.9641    1.4014    0.0000 C   0  0  2  0  0  0  0  0  0  0  0  0
    5.4641   -0.1375    0.0000 C   0  0  0  0  0  0  0  0  0  0  0  0
    6.5519    2.2104    0.0000 C   0  0  0  0  0  0  0  0  0  0  0  0
    4.3763    2.2104    0.0000 C   0  0  0  0  0  0  0  0  0  0  0  0
    7.2242    0.1413    0.0000 C   0  0  0  0  0  0  0  0  0  0  0  0
    5.4641   -1.1374    0.0000 C   0  0  0  0  0  0  0  0  0  0  0  0
    8.5113    1.3003    0.0000 C   0  0  0  0  0  0  0  0  0  0  0  0
    8.8714   -0.3939    0.0000 C   0  0  0  0  0  0  0  0  0  0  0  0
    6.1452    3.1239    0.0000 C   0  0  0  0  0  0  0  0  0  0  0  0
    7.5464    2.1059    0.0000 C   0  0  0  0  0  0  0  0  0  0  0  0
    9.4895    1.5082    0.0000 C   0  0  0  0  0  0  0  0  0  0  0  0
    3.3818    2.1059    0.0000 C   0  0  0  0  0  0  0  0  0  0  0  0
    4.7830    3.1239    0.0000 C   0  0  0  0  0  0  0  0  0  0  0  0
    4.5981   -1.6374    0.0000 C   0  0  0  0  0  0  0  0  0  0  0  0
    9.8496   -0.1860    0.0000 C   0  0  0  0  0  0  0  0  0  0  0  0
    6.3301   -1.6374    0.0000 C   0  0  0  0  0  0  0  0  0  0  0  0
    6.7329    3.9330    0.0000 C   0  0  0  0  0  0  0  0  0  0  0  0
    8.1342    2.9149    0.0000 C   0  0  0  0  0  0  0  0  0  0  0  0
    2.7940    2.9149    0.0000 C   0  0  0  0  0  0  0  0  0  0  0  0
    4.1953    3.9330    0.0000 C   0  0  0  0  0  0  0  0  0  0  0  0
    7.7275    3.8284    0.0000 C   0  0  0  0  0  0  0  0  0  0  0  0
    4.5981   -2.6374    0.0000 C   0  0  0  0  0  0  0  0  0  0  0  0
    6.3301   -2.6374    0.0000 C   0  0  0  0  0  0  0  0  0  0  0  0
    3.2008    3.8284    0.0000 C   0  0  0  0  0  0  0  0  0  0  0  0
    5.4641   -3.1374    0.0000 C   0  0  0  0  0  0  0  0  0  0  0  0
    2.8660   -1.6374    0.0000 C   0  0  0  0  0  0  0  0  0  0  0  0
    2.0000   -1.1374    0.0000 C   0  0  0  0  0  0  0  0  0  0  0  0
    2.8660   -2.6374    0.0000 C   0  0  0  0  0  0  0  0  0  0  0  0
    6.3301   -4.6374    0.0000 C   0  0  0  0  0  0  0  0  0  0  0  0
    6.5765    1.3044    0.0000 H   0  0  0  0  0  0  0  0  0  0  0  0
    5.2456    1.9538    0.0000 H   0  0  0  0  0  0  0  0  0  0  0  0
    8.4897    1.9199    0.0000 H   0  0  0  0  0  0  0  0  0  0  0  0
    7.8974    1.3866    0.0000 H   0  0  0  0  0  0  0  0  0  0  0  0
    8.3457   -0.7225    0.0000 H   0  0  0  0  0  0  0  0  0  0  0  0
    9.1037   -0.9688    0.0000 H   0  0  0  0  0  0  0  0  0  0  0  0
    5.5286    3.1888    0.0000 H   0  0  0  0  0  0  0  0  0  0  0  0
    7.7986    1.5395    0.0000 H   0  0  0  0  0  0  0  0  0  0  0  0
   10.0153    1.8367    0.0000 H   0  0  0  0  0  0  0  0  0  0  0  0
    9.2572    2.0830    0.0000 H   0  0  0  0  0  0  0  0  0  0  0  0
    3.1296    1.5395    0.0000 H   0  0  0  0  0  0  0  0  0  0  0  0
    5.3997    3.1888    0.0000 H   0  0  0  0  0  0  0  0  0  0  0  0
    6.8671   -1.3274    0.0000 H   0  0  0  0  0  0  0  0  0  0  0  0
   10.7651    0.8940    0.0000 H   0  0  0  0  0  0  0  0  0  0  0  0
    6.4808    4.4994    0.0000 H   0  0  0  0  0  0  0  0  0  0  0  0
    8.7508    2.8501    0.0000 H   0  0  0  0  0  0  0  0  0  0  0  0
    2.1774    2.8501    0.0000 H   0  0  0  0  0  0  0  0  0  0  0  0
    4.4474    4.4994    0.0000 H   0  0  0  0  0  0  0  0  0  0  0  0
    4.0611   -2.9474    0.0000 H   0  0  0  0  0  0  0  0  0  0  0  0
    6.8671   -2.9474    0.0000 H   0  0  0  0  0  0  0  0  0  0  0  0
    2.8660   -1.0174    0.0000 H   0  0  0  0  0  0  0  0  0  0  0  0
    2.3100   -0.6005    0.0000 H   0  0  0  0  0  0  0  0  0  0  0  0
    1.4631   -0.8275    0.0000 H   0  0  0  0  0  0  0  0  0  0  0  0
    1.6900   -1.6744    0.0000 H   0  0  0  0  0  0  0  0  0  0  0  0
    2.2460   -2.6374    0.0000 H   0  0  0  0  0  0  0  0  0  0  0  0
    2.8660   -3.2574    0.0000 H   0  0  0  0  0  0  0  0  0  0  0  0
    3.4860   -2.6374    0.0000 H   0  0  0  0  0  0  0  0  0  0  0  0
    6.0201   -5.1744    0.0000 H   0  0  0  0  0  0  0  0  0  0  0  0
    6.8671   -4.9474    0.0000 H   0  0  0  0  0  0  0  0  0  0  0  0
    6.6401   -4.1005    0.0000 H   0  0  0  0  0  0  0  0  0  0  0  0
  1 32  1  0  0  0  0
  2 35  1  0  0  0  0
  3 16  2  0  0  0  0
  4 25  1  0  0  0  0
  4 37  1  0  0  0  0
  5 26  2  0  0  0  0
  6 36  1  0  0  0  0
  6 40  1  0  0  0  0
  7 11  1  0  0  0  0
  7 13  1  0  0  0  0
  7 16  1  0  0  0  0
  8 12  1  0  0  0  0
  8 13  2  0  0  0  0
  9 16  1  0  0  0  0
  9 18  1  0  0  0  0
  9 19  1  0  0  0  0
 10 22  1  0  0  0  0
 10 26  1  0  0  0  0
 10 54  1  0  0  0  0
 11 12  1  0  0  0  0
 11 14  1  1  0  0  0
 11 41  1  0  0  0  0
 12 15  1  1  0  0  0
 12 42  1  0  0  0  0
 13 17  1  0  0  0  0
 14 20  2  0  0  0  0
 14 21  1  0  0  0  0
 15 23  2  0  0  0  0
 15 24  1  0  0  0  0
 17 25  2  0  0  0  0
 17 27  1  0  0  0  0
 18 22  1  0  0  0  0
 18 43  1  0  0  0  0
 18 44  1  0  0  0  0
 19 26  1  0  0  0  0
 19 45  1  0  0  0  0
 19 46  1  0  0  0  0
 20 28  1  0  0  0  0
 20 47  1  0  0  0  0
 21 29  2  0  0  0  0
 21 48  1  0  0  0  0
 22 49  1  0  0  0  0
 22 50  1  0  0  0  0
 23 30  1  0  0  0  0
 23 51  1  0  0  0  0
 24 31  2  0  0  0  0
 24 52  1  0  0  0  0
 25 33  1  0  0  0  0
 27 34  2  0  0  0  0
 27 53  1  0  0  0  0
 28 32  2  0  0  0  0
 28 55  1  0  0  0  0
 29 32  1  0  0  0  0
 29 56  1  0  0  0  0
 30 35  2  0  0  0  0
 30 57  1  0  0  0  0
 31 35  1  0  0  0  0
 31 58  1  0  0  0  0
 33 36  2  0  0  0  0
 33 59  1  0  0  0  0
 34 36  1  0  0  0  0
 34 60  1  0  0  0  0
 37 38  1  0  0  0  0
 37 39  1  0  0  0  0
 37 61  1  0  0  0  0
 38 62  1  0  0  0  0
 38 63  1  0  0  0  0
 38 64  1  0  0  0  0
 39 65  1  0  0  0  0
 39 66  1  0  0  0  0
 39 67  1  0  0  0  0
 40 68  1  0  0  0  0
 40 69  1  0  0  0  0
 40 70  1  0  0  0  0
M  END
> <PUBCHEM_COMPOUND_CID>
11433190

> <PUBCHEM_COMPOUND_CANONICALIZED>
1

> <PUBCHEM_CACTVS_COMPLEXITY>
919

> <PUBCHEM_CACTVS_HBOND_ACCEPTOR>
5

> <PUBCHEM_CACTVS_HBOND_DONOR>
1

> <PUBCHEM_CACTVS_ROTATABLE_BOND>
6

> <PUBCHEM_CACTVS_SUBSKEYS>
AAADceB7uAAGAAAAAAAAAAAAAAAAAQAAAAA8YMEAAAAAAAABUAAAHgIQAAAADD7hmCYzBoPABACoAiNyNACCCAEgJQAJiICuDpiMZ6KFuzuWOCjv1heIqAeQ8O4OJAAACAAIAABIAAAQABAAAAAAAAAAAA==

> <PUBCHEM_IUPAC_OPENEYE_NAME>
4-[(4S,5R)-4,5-bis(4-chlorophenyl)-2-(2-isopropoxy-4-methoxy-phenyl)-4,5-dihydroimidazole-1-carbonyl]piperazin-2-one

> <PUBCHEM_IUPAC_CAS_NAME>
4-[[(4S,5R)-4,5-bis(4-chlorophenyl)-2-(4-methoxy-2-propan-2-yloxyphenyl)-4,5-dihydroimidazol-1-yl]-oxomethyl]-2-piperazinone

> <PUBCHEM_IUPAC_NAME_MARKUP>
4-[(4<I>S</I>,5<I>R</I>)-4,5-bis(4-chlorophenyl)-2-(4-methoxy-2-propan-2-yloxyphenyl)-4,5-dihydroimidazole-1-carbonyl]piperazin-2-one

> <PUBCHEM_IUPAC_NAME>
4-[(4S,5R)-4,5-bis(4-chlorophenyl)-2-(4-methoxy-2-propan-2-yloxyphenyl)-4,5-dihydroimidazole-1-carbonyl]piperazin-2-one

> <PUBCHEM_IUPAC_SYSTEMATIC_NAME>
4-[[(4S,5R)-4,5-bis(4-chlorophenyl)-2-(4-methoxy-2-propan-2-yloxy-phenyl)-4,5-dihydroimidazol-1-yl]carbonyl]piperazin-2-one

> <PUBCHEM_IUPAC_TRADITIONAL_NAME>
4-[(4S,5R)-4,5-bis(4-chlorophenyl)-2-(2-isopropoxy-4-methoxy-phenyl)-2-imidazoline-1-carbonyl]piperazin-2-one

> <PUBCHEM_IUPAC_INCHI>
InChI=1S/C30H30Cl2N4O4/c1-18(2)40-25-16-23(39-3)12-13-24(25)29-34-27(19-4-8-21(31)9-5-19)28(20-6-10-22(32)11-7-20)36(29)30(38)35-15-14-33-26(37)17-35/h4-13,16,18,27-28H,14-15,17H2,1-3H3,(H,33,37)/t27-,28+/m0/s1

> <PUBCHEM_IUPAC_INCHIKEY>
BDUHCSBCVGXTJM-WUFINQPMSA-N

> <PUBCHEM_XLOGP3_AA>
5.2

> <PUBCHEM_EXACT_MASS>
580.164411

> <PUBCHEM_MOLECULAR_FORMULA>
C30H30Cl2N4O4

> <PUBCHEM_MOLECULAR_WEIGHT>
581.5

> <PUBCHEM_OPENEYE_CAN_SMILES>
CC(C)OC1=C(C=CC(=C1)OC)C2=NC(C(N2C(=O)N3CCNC(=O)C3)C4=CC=C(C=C4)Cl)C5=CC=C(C=C5)Cl

> <PUBCHEM_OPENEYE_ISO_SMILES>
CC(C)OC1=C(C=CC(=C1)OC)C2=N[C@H]([C@H](N2C(=O)N3CCNC(=O)C3)C4=CC=C(C=C4)Cl)C5=CC=C(C=C5)Cl

> <PUBCHEM_CACTVS_TPSA>
83.5

> <PUBCHEM_MONOISOTOPIC_WEIGHT>
580.164411

> <PUBCHEM_TOTAL_CHARGE>
0

> <PUBCHEM_HEAVY_ATOM_COUNT>
40

> <PUBCHEM_ATOM_DEF_STEREO_COUNT>
2

> <PUBCHEM_ATOM_UDEF_STEREO_COUNT>
0

> <PUBCHEM_BOND_DEF_STEREO_COUNT>
0

> <PUBCHEM_BOND_UDEF_STEREO_COUNT>
0

> <PUBCHEM_ISOTOPIC_ATOM_COUNT>
0

> <PUBCHEM_COMPONENT_COUNT>
1

> <PUBCHEM_CACTVS_TAUTO_COUNT>
-1

> <PUBCHEM_COORDINATE_TYPE>
1
5
255

> <PUBCHEM_BONDANNOTATIONS>
11  14  5
12  15  5
14  20  8
14  21  8
15  23  8
15  24  8
17  25  8
17  27  8
20  28  8
21  29  8
23  30  8
24  31  8
25  33  8
27  34  8
28  32  8
29  32  8
30  35  8
31  35  8
33  36  8
34  36  8

$$$$
