166138
  -OEChem-05262008352D

110117  0     0  0  0  0  0  0999 V2000
   12.9721    7.7226    0.0000 S   0  0  0  0  0  0  0  0  0  0  0  0
   18.2343    7.7468    0.0000 S   0  0  0  0  0  0  0  0  0  0  0  0
    9.4716   -7.3326    0.0000 S   0  0  0  0  0  0  0  0  0  0  0  0
    3.4037   -5.8560    0.0000 S   0  0  0  0  0  0  0  0  0  0  0  0
   16.4525    4.6880    0.0000 O   0  0  0  0  0  0  0  0  0  0  0  0
    7.7280   -4.3393    0.0000 O   0  0  0  0  0  0  0  0  0  0  0  0
   12.1061    8.2226    0.0000 O   0  0  0  0  0  0  0  0  0  0  0  0
   19.0984    8.2501    0.0000 O   0  0  0  0  0  0  0  0  0  0  0  0
    9.4754   -8.3326    0.0000 O   0  0  0  0  0  0  0  0  0  0  0  0
   12.4721    6.8566    0.0000 O   0  0  0  0  0  0  0  0  0  0  0  0
   13.4721    8.5887    0.0000 O   0  0  0  0  0  0  0  0  0  0  0  0
   18.7376    6.8827    0.0000 O   0  0  0  0  0  0  0  0  0  0  0  0
   17.7309    8.6109    0.0000 O   0  0  0  0  0  0  0  0  0  0  0  0
   10.4716   -7.3288    0.0000 O   0  0  0  0  0  0  0  0  0  0  0  0
    8.4716   -7.3365    0.0000 O   0  0  0  0  0  0  0  0  0  0  0  0
   15.5702    1.2226    0.0000 O   0  0  0  0  0  0  0  0  0  0  0  0
    6.8755   -7.8427    0.0000 O   0  0  0  0  0  0  0  0  0  0  0  0
    2.5357   -5.3594    0.0000 O   0  0  0  0  0  0  0  0  0  0  0  0
    2.9070   -6.7240    0.0000 O   0  0  0  0  0  0  0  0  0  0  0  0
    3.9003   -4.9881    0.0000 O   0  0  0  0  0  0  0  0  0  0  0  0
   12.1061   -2.7774    0.0000 N   0  0  0  0  0  0  0  0  0  0  0  0
   14.7041    4.7226    0.0000 N   0  0  0  0  0  0  0  0  0  0  0  0
    7.7357   -6.3393    0.0000 N   0  0  0  0  0  0  0  0  0  0  0  0
   13.8381    4.2226    0.0000 N   0  0  0  0  0  0  0  0  0  0  0  0
   13.8381    0.2226    0.0000 N   0  0  0  0  0  0  0  0  0  0  0  0
   12.9721   -1.2774    0.0000 N   0  0  0  0  0  0  0  0  0  0  0  0
    6.8678   -5.8427    0.0000 N   0  0  0  0  0  0  0  0  0  0  0  0
   11.2400   -1.2774    0.0000 N   0  0  0  0  0  0  0  0  0  0  0  0
   12.1061    0.2226    0.0000 N   0  0  0  0  0  0  0  0  0  0  0  0
   10.3740    0.2226    0.0000 N   0  0  0  0  0  0  0  0  0  0  0  0
   15.5702    6.2226    0.0000 C   0  0  0  0  0  0  0  0  0  0  0  0
   15.5702    7.2226    0.0000 C   0  0  0  0  0  0  0  0  0  0  0  0
   10.3280   -4.8293    0.0000 C   0  0  0  0  0  0  0  0  0  0  0  0
    9.4600   -4.3327    0.0000 C   0  0  0  0  0  0  0  0  0  0  0  0
   14.7041    5.7226    0.0000 C   0  0  0  0  0  0  0  0  0  0  0  0
   13.8381    7.2226    0.0000 C   0  0  0  0  0  0  0  0  0  0  0  0
   14.7041    7.7226    0.0000 C   0  0  0  0  0  0  0  0  0  0  0  0
   16.4641    7.7573    0.0000 C   0  0  0  0  0  0  0  0  0  0  0  0
   17.3702    7.2435    0.0000 C   0  0  0  0  0  0  0  0  0  0  0  0
   16.4641    5.6880    0.0000 C   0  0  0  0  0  0  0  0  0  0  0  0
    9.4677   -6.3326    0.0000 C   0  0  0  0  0  0  0  0  0  0  0  0
   10.3318   -5.8293    0.0000 C   0  0  0  0  0  0  0  0  0  0  0  0
   13.8381    6.2226    0.0000 C   0  0  0  0  0  0  0  0  0  0  0  0
    8.5959   -4.8360    0.0000 C   0  0  0  0  0  0  0  0  0  0  0  0
    8.5998   -5.8360    0.0000 C   0  0  0  0  0  0  0  0  0  0  0  0
   17.3702    6.2018    0.0000 C   0  0  0  0  0  0  0  0  0  0  0  0
   11.2360   -4.3190    0.0000 C   0  0  0  0  0  0  0  0  0  0  0  0
   11.2400   -3.2774    0.0000 C   0  0  0  0  0  0  0  0  0  0  0  0
    9.4400   -3.2912    0.0000 C   0  0  0  0  0  0  0  0  0  0  0  0
   10.3360   -2.7600    0.0000 C   0  0  0  0  0  0  0  0  0  0  0  0
   13.8381    3.2226    0.0000 C   0  0  0  0  0  0  0  0  0  0  0  0
   12.9721    2.7226    0.0000 C   0  0  0  0  0  0  0  0  0  0  0  0
   13.8381    1.2226    0.0000 C   0  0  0  0  0  0  0  0  0  0  0  0
   12.1061   -1.7774    0.0000 C   0  0  0  0  0  0  0  0  0  0  0  0
   12.9721    1.7226    0.0000 C   0  0  0  0  0  0  0  0  0  0  0  0
   14.7041    1.7226    0.0000 C   0  0  0  0  0  0  0  0  0  0  0  0
   14.7041    2.7226    0.0000 C   0  0  0  0  0  0  0  0  0  0  0  0
   12.9721   -0.2774    0.0000 C   0  0  0  0  0  0  0  0  0  0  0  0
   12.1061    3.2226    0.0000 C   0  0  0  0  0  0  0  0  0  0  0  0
    6.0037   -6.3460    0.0000 C   0  0  0  0  0  0  0  0  0  0  0  0
   11.2400   -0.2774    0.0000 C   0  0  0  0  0  0  0  0  0  0  0  0
    5.1357   -5.8494    0.0000 C   0  0  0  0  0  0  0  0  0  0  0  0
    6.0075   -7.3460    0.0000 C   0  0  0  0  0  0  0  0  0  0  0  0
    4.2716   -6.3527    0.0000 C   0  0  0  0  0  0  0  0  0  0  0  0
    5.1434   -7.8493    0.0000 C   0  0  0  0  0  0  0  0  0  0  0  0
    4.2755   -7.3527    0.0000 C   0  0  0  0  0  0  0  0  0  0  0  0
    9.5080   -0.2774    0.0000 C   0  0  0  0  0  0  0  0  0  0  0  0
   16.4362    1.7226    0.0000 C   0  0  0  0  0  0  0  0  0  0  0  0
    8.6420    0.2226    0.0000 C   0  0  0  0  0  0  0  0  0  0  0  0
    9.5080   -1.2774    0.0000 C   0  0  0  0  0  0  0  0  0  0  0  0
    7.7759   -0.2774    0.0000 C   0  0  0  0  0  0  0  0  0  0  0  0
    8.6420   -1.7774    0.0000 C   0  0  0  0  0  0  0  0  0  0  0  0
    6.8793   -8.8427    0.0000 C   0  0  0  0  0  0  0  0  0  0  0  0
    7.7759   -1.2774    0.0000 C   0  0  0  0  0  0  0  0  0  0  0  0
   14.7041    8.3427    0.0000 H   0  0  0  0  0  0  0  0  0  0  0  0
   16.4569    8.3773    0.0000 H   0  0  0  0  0  0  0  0  0  0  0  0
   10.8700   -6.1372    0.0000 H   0  0  0  0  0  0  0  0  0  0  0  0
   13.3012    5.9126    0.0000 H   0  0  0  0  0  0  0  0  0  0  0  0
   17.9059    5.8898    0.0000 H   0  0  0  0  0  0  0  0  0  0  0  0
   11.7706   -4.6331    0.0000 H   0  0  0  0  0  0  0  0  0  0  0  0
    8.8983   -2.9895    0.0000 H   0  0  0  0  0  0  0  0  0  0  0  0
   10.3312   -2.1400    0.0000 H   0  0  0  0  0  0  0  0  0  0  0  0
   12.6430   -3.0873    0.0000 H   0  0  0  0  0  0  0  0  0  0  0  0
   12.4352    1.4126    0.0000 H   0  0  0  0  0  0  0  0  0  0  0  0
   16.9859    4.3719    0.0000 H   0  0  0  0  0  0  0  0  0  0  0  0
   15.2411    3.0326    0.0000 H   0  0  0  0  0  0  0  0  0  0  0  0
    7.1923   -4.6514    0.0000 H   0  0  0  0  0  0  0  0  0  0  0  0
   14.3750   -0.0874    0.0000 H   0  0  0  0  0  0  0  0  0  0  0  0
   12.4161    3.7596    0.0000 H   0  0  0  0  0  0  0  0  0  0  0  0
   11.5691    3.5326    0.0000 H   0  0  0  0  0  0  0  0  0  0  0  0
   11.7961    2.6857    0.0000 H   0  0  0  0  0  0  0  0  0  0  0  0
   12.1061    8.8427    0.0000 H   0  0  0  0  0  0  0  0  0  0  0  0
   19.6365    7.9422    0.0000 H   0  0  0  0  0  0  0  0  0  0  0  0
   10.0136   -8.6406    0.0000 H   0  0  0  0  0  0  0  0  0  0  0  0
    5.1333   -5.2294    0.0000 H   0  0  0  0  0  0  0  0  0  0  0  0
   10.3740    0.8426    0.0000 H   0  0  0  0  0  0  0  0  0  0  0  0
    5.1458   -8.4693    0.0000 H   0  0  0  0  0  0  0  0  0  0  0  0
    3.7398   -7.6647    0.0000 H   0  0  0  0  0  0  0  0  0  0  0  0
   16.7462    1.1857    0.0000 H   0  0  0  0  0  0  0  0  0  0  0  0
   16.9731    2.0326    0.0000 H   0  0  0  0  0  0  0  0  0  0  0  0
   16.1262    2.2596    0.0000 H   0  0  0  0  0  0  0  0  0  0  0  0
    8.6420    0.8426    0.0000 H   0  0  0  0  0  0  0  0  0  0  0  0
   10.0449   -1.5874    0.0000 H   0  0  0  0  0  0  0  0  0  0  0  0
    7.2390    0.0326    0.0000 H   0  0  0  0  0  0  0  0  0  0  0  0
    8.6420   -2.3974    0.0000 H   0  0  0  0  0  0  0  0  0  0  0  0
    6.2593   -8.8450    0.0000 H   0  0  0  0  0  0  0  0  0  0  0  0
    6.8817   -9.4626    0.0000 H   0  0  0  0  0  0  0  0  0  0  0  0
    7.4993   -8.8403    0.0000 H   0  0  0  0  0  0  0  0  0  0  0  0
    7.2390   -1.5874    0.0000 H   0  0  0  0  0  0  0  0  0  0  0  0
    2.0000   -5.6714    0.0000 H   0  0  0  0  0  0  0  0  0  0  0  0
  1  7  1  0  0  0  0
  1 10  2  0  0  0  0
  1 11  2  0  0  0  0
  1 36  1  0  0  0  0
  2  8  1  0  0  0  0
  2 12  2  0  0  0  0
  2 13  2  0  0  0  0
  2 39  1  0  0  0  0
  3  9  1  0  0  0  0
  3 14  2  0  0  0  0
  3 15  2  0  0  0  0
  3 41  1  0  0  0  0
  4 18  1  0  0  0  0
  4 19  2  0  0  0  0
  4 20  2  0  0  0  0
  4 64  1  0  0  0  0
  5 40  1  0  0  0  0
  5 85  1  0  0  0  0
  6 44  1  0  0  0  0
  6 87  1  0  0  0  0
  7 92  1  0  0  0  0
  8 93  1  0  0  0  0
  9 94  1  0  0  0  0
 16 56  1  0  0  0  0
 16 68  1  0  0  0  0
 17 63  1  0  0  0  0
 17 73  1  0  0  0  0
 18110  1  0  0  0  0
 21 48  1  0  0  0  0
 21 54  1  0  0  0  0
 21 83  1  0  0  0  0
 22 24  2  0  0  0  0
 22 35  1  0  0  0  0
 23 27  2  0  0  0  0
 23 45  1  0  0  0  0
 24 51  1  0  0  0  0
 25 53  1  0  0  0  0
 25 58  1  0  0  0  0
 25 88  1  0  0  0  0
 26 54  2  0  0  0  0
 26 58  1  0  0  0  0
 27 60  1  0  0  0  0
 28 54  1  0  0  0  0
 28 61  2  0  0  0  0
 29 58  2  0  0  0  0
 29 61  1  0  0  0  0
 30 61  1  0  0  0  0
 30 67  1  0  0  0  0
 30 96  1  0  0  0  0
 31 32  1  0  0  0  0
 31 35  2  0  0  0  0
 31 40  1  0  0  0  0
 32 37  2  0  0  0  0
 32 38  1  0  0  0  0
 33 34  1  0  0  0  0
 33 42  2  0  0  0  0
 33 47  1  0  0  0  0
 34 44  2  0  0  0  0
 34 49  1  0  0  0  0
 35 43  1  0  0  0  0
 36 37  1  0  0  0  0
 36 43  2  0  0  0  0
 37 75  1  0  0  0  0
 38 39  2  0  0  0  0
 38 76  1  0  0  0  0
 39 46  1  0  0  0  0
 40 46  2  0  0  0  0
 41 42  1  0  0  0  0
 41 45  2  0  0  0  0
 42 77  1  0  0  0  0
 43 78  1  0  0  0  0
 44 45  1  0  0  0  0
 46 79  1  0  0  0  0
 47 48  2  0  0  0  0
 47 80  1  0  0  0  0
 48 50  1  0  0  0  0
 49 50  2  0  0  0  0
 49 81  1  0  0  0  0
 50 82  1  0  0  0  0
 51 52  1  0  0  0  0
 51 57  2  0  0  0  0
 52 55  2  0  0  0  0
 52 59  1  0  0  0  0
 53 55  1  0  0  0  0
 53 56  2  0  0  0  0
 55 84  1  0  0  0  0
 56 57  1  0  0  0  0
 57 86  1  0  0  0  0
 59 89  1  0  0  0  0
 59 90  1  0  0  0  0
 59 91  1  0  0  0  0
 60 62  1  0  0  0  0
 60 63  2  0  0  0  0
 62 64  2  0  0  0  0
 62 95  1  0  0  0  0
 63 65  1  0  0  0  0
 64 66  1  0  0  0  0
 65 66  2  0  0  0  0
 65 97  1  0  0  0  0
 66 98  1  0  0  0  0
 67 69  2  0  0  0  0
 67 70  1  0  0  0  0
 68 99  1  0  0  0  0
 68100  1  0  0  0  0
 68101  1  0  0  0  0
 69 71  1  0  0  0  0
 69102  1  0  0  0  0
 70 72  2  0  0  0  0
 70103  1  0  0  0  0
 71 74  2  0  0  0  0
 71104  1  0  0  0  0
 72 74  1  0  0  0  0
 72105  1  0  0  0  0
 73106  1  0  0  0  0
 73107  1  0  0  0  0
 73108  1  0  0  0  0
 74109  1  0  0  0  0
M  END
> <PUBCHEM_COMPOUND_CID>
166138

> <PUBCHEM_COMPOUND_CANONICALIZED>
1

> <PUBCHEM_CACTVS_COMPLEXITY>
2400

> <PUBCHEM_CACTVS_HBOND_ACCEPTOR>
26

> <PUBCHEM_CACTVS_HBOND_DONOR>
9

> <PUBCHEM_CACTVS_ROTATABLE_BOND>
16

> <PUBCHEM_CACTVS_SUBSKEYS>
AAADcfB//gBwAAAAAAAAAAAAAAAAAAAAAAA8YMGDAAAAAADB1AAAHgQYCAAADAyB2AIz18bIFoKiAiRCZHDCCEkhIoAJiBwHbIiOLiLWuZuFcCxu0BtY+CeQ0LMOuICBxiAaEQBxAQOMQDQiAAAAAAAAAA==

> <PUBCHEM_IUPAC_OPENEYE_NAME>
4-[4-[[4-anilino-6-[[5-hydroxy-6-(2-methoxy-5-sulfo-phenyl)azo-7-sulfo-2-naphthyl]amino]-1,3,5-triazin-2-yl]amino]-5-methoxy-2-methyl-phenyl]azo-5-hydroxy-naphthalene-2,7-disulfonic acid

> <PUBCHEM_IUPAC_CAS_NAME>
4-[4-[[4-anilino-6-[[5-hydroxy-6-(2-methoxy-5-sulfophenyl)azo-7-sulfo-2-naphthalenyl]amino]-1,3,5-triazin-2-yl]amino]-5-methoxy-2-methylphenyl]azo-5-hydroxynaphthalene-2,7-disulfonic acid

> <PUBCHEM_IUPAC_NAME_MARKUP>
4-[[4-[[4-anilino-6-[[5-hydroxy-6-[(2-methoxy-5-sulfophenyl)diazenyl]-7-sulfonaphthalen-2-yl]amino]-1,3,5-triazin-2-yl]amino]-5-methoxy-2-methylphenyl]diazenyl]-5-hydroxynaphthalene-2,7-disulfonic acid

> <PUBCHEM_IUPAC_NAME>
4-[[4-[[4-anilino-6-[[5-hydroxy-6-[(2-methoxy-5-sulfophenyl)diazenyl]-7-sulfonaphthalen-2-yl]amino]-1,3,5-triazin-2-yl]amino]-5-methoxy-2-methylphenyl]diazenyl]-5-hydroxynaphthalene-2,7-disulfonic acid

> <PUBCHEM_IUPAC_SYSTEMATIC_NAME>
4-[[5-methoxy-4-[[4-[[6-[(2-methoxy-5-sulfo-phenyl)diazenyl]-5-oxidanyl-7-sulfo-naphthalen-2-yl]amino]-6-phenylazanyl-1,3,5-triazin-2-yl]amino]-2-methyl-phenyl]diazenyl]-5-oxidanyl-naphthalene-2,7-disulfonic acid

> <PUBCHEM_IUPAC_TRADITIONAL_NAME>
4-[4-[[4-anilino-6-[[5-hydroxy-6-(2-methoxy-5-sulfo-phenyl)azo-7-sulfo-2-naphthyl]amino]-s-triazin-2-yl]amino]-5-methoxy-2-methyl-phenyl]azo-5-hydroxy-naphthalene-2,7-disulfonic acid

> <PUBCHEM_IUPAC_INCHI>
InChI=1S/C44H36N10O16S4/c1-22-13-32(37(70-3)21-31(22)51-53-34-19-28(72(60,61)62)15-24-16-29(73(63,64)65)20-35(55)39(24)34)47-44-49-42(45-25-7-5-4-6-8-25)48-43(50-44)46-26-9-11-30-23(14-26)17-38(74(66,67)68)40(41(30)56)54-52-33-18-27(71(57,58)59)10-12-36(33)69-2/h4-21,55-56H,1-3H3,(H,57,58,59)(H,60,61,62)(H,63,64,65)(H,66,67,68)(H3,45,46,47,48,49,50)

> <PUBCHEM_IUPAC_INCHIKEY>
WCUQJAMKDBWCOW-UHFFFAOYSA-N

> <PUBCHEM_XLOGP3_AA>
6.2

> <PUBCHEM_EXACT_MASS>
1088.11936

> <PUBCHEM_MOLECULAR_FORMULA>
C44H36N10O16S4

> <PUBCHEM_MOLECULAR_WEIGHT>
1089.1

> <PUBCHEM_OPENEYE_CAN_SMILES>
CC1=CC(=C(C=C1N=NC2=C3C(=CC(=C2)S(=O)(=O)O)C=C(C=C3O)S(=O)(=O)O)OC)NC4=NC(=NC(=N4)NC5=CC6=CC(=C(C(=C6C=C5)O)N=NC7=C(C=CC(=C7)S(=O)(=O)O)OC)S(=O)(=O)O)NC8=CC=CC=C8

> <PUBCHEM_OPENEYE_ISO_SMILES>
CC1=CC(=C(C=C1N=NC2=C3C(=CC(=C2)S(=O)(=O)O)C=C(C=C3O)S(=O)(=O)O)OC)NC4=NC(=NC(=N4)NC5=CC6=CC(=C(C(=C6C=C5)O)N=NC7=C(C=CC(=C7)S(=O)(=O)O)OC)S(=O)(=O)O)NC8=CC=CC=C8

> <PUBCHEM_CACTVS_TPSA>
434

> <PUBCHEM_MONOISOTOPIC_WEIGHT>
1088.11936

> <PUBCHEM_TOTAL_CHARGE>
0

> <PUBCHEM_HEAVY_ATOM_COUNT>
74

> <PUBCHEM_ATOM_DEF_STEREO_COUNT>
0

> <PUBCHEM_ATOM_UDEF_STEREO_COUNT>
0

> <PUBCHEM_BOND_DEF_STEREO_COUNT>
0

> <PUBCHEM_BOND_UDEF_STEREO_COUNT>
0

> <PUBCHEM_ISOTOPIC_ATOM_COUNT>
0

> <PUBCHEM_COMPONENT_COUNT>
1

> <PUBCHEM_CACTVS_TAUTO_COUNT>
-1

> <PUBCHEM_COORDINATE_TYPE>
1
5
255

> <PUBCHEM_BONDANNOTATIONS>
26  54  8
26  58  8
28  54  8
28  61  8
29  58  8
29  61  8
31  32  8
31  35  8
31  40  8
32  37  8
32  38  8
33  34  8
33  42  8
33  47  8
34  44  8
34  49  8
35  43  8
36  37  8
36  43  8
38  39  8
39  46  8
40  46  8
41  42  8
41  45  8
44  45  8
47  48  8
48  50  8
49  50  8
51  52  8
51  57  8
52  55  8
53  55  8
53  56  8
56  57  8
60  62  8
60  63  8
62  64  8
63  65  8
64  66  8
65  66  8
67  69  8
67  70  8
69  71  8
70  72  8
71  74  8
72  74  8

$$$$
