6433272
  -OEChem-05262008352D

140142  0     1  0  0  0  0  0999 V2000
   16.3933    1.7500    0.0000 O   0  0  0  0  0  0  0  0  0  0  0  0
   16.3933    3.7500    0.0000 O   0  0  0  0  0  0  0  0  0  0  0  0
   18.9914    3.2500    0.0000 O   0  0  0  0  0  0  0  0  0  0  0  0
   16.3933   -1.2500    0.0000 O   0  0  0  0  0  0  0  0  0  0  0  0
   18.1254   -1.2500    0.0000 O   0  0  0  0  0  0  0  0  0  0  0  0
   14.6613    1.7500    0.0000 O   0  0  0  0  0  0  0  0  0  0  0  0
   19.8574    1.7500    0.0000 O   0  0  0  0  0  0  0  0  0  0  0  0
   13.7953    4.2500    0.0000 O   0  0  0  0  0  0  0  0  0  0  0  0
   18.9914    0.2500    0.0000 O   0  0  0  0  0  0  0  0  0  0  0  0
   16.3933   -3.2500    0.0000 O   0  0  0  0  0  0  0  0  0  0  0  0
   19.8574   -3.2500    0.0000 O   0  0  0  0  0  0  0  0  0  0  0  0
   11.1972    1.7500    0.0000 O   0  0  0  0  0  0  0  0  0  0  0  0
    9.4651    1.7500    0.0000 O   0  0  0  0  0  0  0  0  0  0  0  0
    7.7331    1.7500    0.0000 O   0  0  0  0  0  0  0  0  0  0  0  0
    5.1350    3.2500    0.0000 O   0  0  0  0  0  0  0  0  0  0  0  0
    2.5369    1.7500    0.0000 O   0  0  0  0  0  0  0  0  0  0  0  0
    6.0010    1.7500    0.0000 O   0  0  0  0  0  0  0  0  0  0  0  0
   18.1254   -4.2500    0.0000 N   0  0  0  0  0  0  0  0  0  0  0  0
   16.3933    2.7500    0.0000 C   0  0  1  0  0  0  0  0  0  0  0  0
   17.2594    1.2500    0.0000 C   0  0  3  0  0  0  0  0  0  0  0  0
   18.1254    1.7500    0.0000 C   0  0  3  0  0  0  0  0  0  0  0  0
   18.1254    2.7500    0.0000 C   0  0  3  0  0  0  0  0  0  0  0  0
   17.2594    3.2500    0.0000 C   0  0  0  0  0  0  0  0  0  0  0  0
   15.5273    3.2500    0.0000 C   0  0  0  0  0  0  0  0  0  0  0  0
   17.2594    0.2500    0.0000 C   0  0  0  0  0  0  0  0  0  0  0  0
   14.6613    2.7500    0.0000 C   0  0  3  0  0  0  0  0  0  0  0  0
   16.3933   -0.2500    0.0000 C   0  0  3  0  0  0  0  0  0  0  0  0
   18.9914    1.2500    0.0000 C   0  0  0  0  0  0  0  0  0  0  0  0
   13.7953    3.2500    0.0000 C   0  0  3  0  0  0  0  0  0  0  0  0
   17.2594   -1.7500    0.0000 C   0  0  1  0  0  0  0  0  0  0  0  0
   17.2594   -2.7500    0.0000 C   0  0  2  0  0  0  0  0  0  0  0  0
   12.9292    2.7500    0.0000 C   0  0  0  0  0  0  0  0  0  0  0  0
   18.1254   -3.2500    0.0000 C   0  0  2  0  0  0  0  0  0  0  0  0
   18.9914   -2.7500    0.0000 C   0  0  1  0  0  0  0  0  0  0  0  0
   18.9914   -1.7500    0.0000 C   0  0  1  0  0  0  0  0  0  0  0  0
   15.5273    0.2500    0.0000 C   0  0  0  0  0  0  0  0  0  0  0  0
   12.0632    3.2500    0.0000 C   0  0  0  0  0  0  0  0  0  0  0  0
   11.1972    2.7500    0.0000 C   0  0  3  0  0  0  0  0  0  0  0  0
   19.8574   -1.2500    0.0000 C   0  0  0  0  0  0  0  0  0  0  0  0
   10.3312    3.2500    0.0000 C   0  0  0  0  0  0  0  0  0  0  0  0
   14.6613   -0.2500    0.0000 C   0  0  0  0  0  0  0  0  0  0  0  0
    9.4651    2.7500    0.0000 C   0  0  3  0  0  0  0  0  0  0  0  0
    8.5991    3.2500    0.0000 C   0  0  0  0  0  0  0  0  0  0  0  0
    7.7331    2.7500    0.0000 C   0  0  3  0  0  0  0  0  0  0  0  0
   13.7953    0.2500    0.0000 C   0  0  0  0  0  0  0  0  0  0  0  0
    6.8671    3.2500    0.0000 C   0  0  0  0  0  0  0  0  0  0  0  0
    4.2690    1.7500    0.0000 C   0  0  2  0  0  0  0  0  0  0  0  0
    3.4030    1.2500    0.0000 C   0  0  1  0  0  0  0  0  0  0  0  0
    4.2690    2.7500    0.0000 C   0  0  2  0  0  0  0  0  0  0  0  0
   12.9292   -0.2500    0.0000 C   0  0  0  0  0  0  0  0  0  0  0  0
    3.4030    0.2500    0.0000 C   0  0  1  0  0  0  0  0  0  0  0  0
    6.0010    2.7500    0.0000 C   0  0  0  0  0  0  0  0  0  0  0  0
    5.1350    1.2500    0.0000 C   0  0  0  0  0  0  0  0  0  0  0  0
    3.4030    3.2500    0.0000 C   0  0  0  0  0  0  0  0  0  0  0  0
    2.5369   -0.2500    0.0000 C   0  0  0  0  0  0  0  0  0  0  0  0
    4.2690   -0.2500    0.0000 C   0  0  0  0  0  0  0  0  0  0  0  0
   12.0632    0.2500    0.0000 C   0  0  0  0  0  0  0  0  0  0  0  0
    5.1350    0.2500    0.0000 C   0  0  0  0  0  0  0  0  0  0  0  0
   11.1972   -0.2500    0.0000 C   0  0  0  0  0  0  0  0  0  0  0  0
    6.0010   -0.2500    0.0000 C   0  0  0  0  0  0  0  0  0  0  0  0
   10.3312    0.2500    0.0000 C   0  0  0  0  0  0  0  0  0  0  0  0
    6.8671    0.2500    0.0000 C   0  0  0  0  0  0  0  0  0  0  0  0
    7.7331   -0.2500    0.0000 C   0  0  0  0  0  0  0  0  0  0  0  0
    8.5991    0.2500    0.0000 C   0  0  0  0  0  0  0  0  0  0  0  0
    9.4651   -0.2500    0.0000 C   0  0  0  0  0  0  0  0  0  0  0  0
   17.7963    0.9400    0.0000 H   0  0  0  0  0  0  0  0  0  0  0  0
   18.6623    2.0600    0.0000 H   0  0  0  0  0  0  0  0  0  0  0  0
   18.1254    3.3700    0.0000 H   0  0  0  0  0  0  0  0  0  0  0  0
   17.6579    3.7250    0.0000 H   0  0  0  0  0  0  0  0  0  0  0  0
   16.8608    3.7250    0.0000 H   0  0  0  0  0  0  0  0  0  0  0  0
   15.9258    3.7250    0.0000 H   0  0  0  0  0  0  0  0  0  0  0  0
   15.1288    3.7250    0.0000 H   0  0  0  0  0  0  0  0  0  0  0  0
   17.4714   -0.3326    0.0000 H   0  0  0  0  0  0  0  0  0  0  0  0
   17.8699    0.3577    0.0000 H   0  0  0  0  0  0  0  0  0  0  0  0
   15.1982    2.4400    0.0000 H   0  0  0  0  0  0  0  0  0  0  0  0
   16.9303   -0.5600    0.0000 H   0  0  0  0  0  0  0  0  0  0  0  0
   13.2583    3.5600    0.0000 H   0  0  0  0  0  0  0  0  0  0  0  0
   16.9303    4.0600    0.0000 H   0  0  0  0  0  0  0  0  0  0  0  0
   17.2594   -1.1300    0.0000 H   0  0  0  0  0  0  0  0  0  0  0  0
   18.9914    3.8700    0.0000 H   0  0  0  0  0  0  0  0  0  0  0  0
   17.2594   -3.3700    0.0000 H   0  0  0  0  0  0  0  0  0  0  0  0
   12.5307    2.2750    0.0000 H   0  0  0  0  0  0  0  0  0  0  0  0
   13.3278    2.2750    0.0000 H   0  0  0  0  0  0  0  0  0  0  0  0
   18.6623   -3.5600    0.0000 H   0  0  0  0  0  0  0  0  0  0  0  0
   19.5284   -2.4400    0.0000 H   0  0  0  0  0  0  0  0  0  0  0  0
   18.9914   -1.1300    0.0000 H   0  0  0  0  0  0  0  0  0  0  0  0
   15.5273    0.8700    0.0000 H   0  0  0  0  0  0  0  0  0  0  0  0
   12.4617    3.7250    0.0000 H   0  0  0  0  0  0  0  0  0  0  0  0
   11.6647    3.7250    0.0000 H   0  0  0  0  0  0  0  0  0  0  0  0
   14.1244    1.4400    0.0000 H   0  0  0  0  0  0  0  0  0  0  0  0
   11.7341    2.4400    0.0000 H   0  0  0  0  0  0  0  0  0  0  0  0
   20.3944    1.4400    0.0000 H   0  0  0  0  0  0  0  0  0  0  0  0
   13.2583    4.5600    0.0000 H   0  0  0  0  0  0  0  0  0  0  0  0
   20.1674   -1.7869    0.0000 H   0  0  0  0  0  0  0  0  0  0  0  0
   20.3944   -0.9400    0.0000 H   0  0  0  0  0  0  0  0  0  0  0  0
   19.5474   -0.7131    0.0000 H   0  0  0  0  0  0  0  0  0  0  0  0
   10.7297    3.7250    0.0000 H   0  0  0  0  0  0  0  0  0  0  0  0
    9.9326    3.7250    0.0000 H   0  0  0  0  0  0  0  0  0  0  0  0
   18.6623   -4.5600    0.0000 H   0  0  0  0  0  0  0  0  0  0  0  0
   17.5885   -4.5600    0.0000 H   0  0  0  0  0  0  0  0  0  0  0  0
   16.3933   -3.8700    0.0000 H   0  0  0  0  0  0  0  0  0  0  0  0
   14.6613   -0.8700    0.0000 H   0  0  0  0  0  0  0  0  0  0  0  0
   10.0021    2.4400    0.0000 H   0  0  0  0  0  0  0  0  0  0  0  0
   20.3944   -2.9400    0.0000 H   0  0  0  0  0  0  0  0  0  0  0  0
    8.9976    3.7250    0.0000 H   0  0  0  0  0  0  0  0  0  0  0  0
    8.2006    3.7250    0.0000 H   0  0  0  0  0  0  0  0  0  0  0  0
   11.7341    1.4400    0.0000 H   0  0  0  0  0  0  0  0  0  0  0  0
    7.1962    2.4400    0.0000 H   0  0  0  0  0  0  0  0  0  0  0  0
   13.7953    0.8700    0.0000 H   0  0  0  0  0  0  0  0  0  0  0  0
    7.2656    3.7250    0.0000 H   0  0  0  0  0  0  0  0  0  0  0  0
    6.4685    3.7250    0.0000 H   0  0  0  0  0  0  0  0  0  0  0  0
    8.9282    1.4400    0.0000 H   0  0  0  0  0  0  0  0  0  0  0  0
    4.2690    1.1300    0.0000 H   0  0  0  0  0  0  0  0  0  0  0  0
    3.4030    1.8700    0.0000 H   0  0  0  0  0  0  0  0  0  0  0  0
    4.2690    3.3700    0.0000 H   0  0  0  0  0  0  0  0  0  0  0  0
    2.8660    0.5600    0.0000 H   0  0  0  0  0  0  0  0  0  0  0  0
   12.9292   -0.8700    0.0000 H   0  0  0  0  0  0  0  0  0  0  0  0
    4.8250    0.7131    0.0000 H   0  0  0  0  0  0  0  0  0  0  0  0
    5.6720    0.9400    0.0000 H   0  0  0  0  0  0  0  0  0  0  0  0
    5.4450    1.7869    0.0000 H   0  0  0  0  0  0  0  0  0  0  0  0
    7.1962    1.4400    0.0000 H   0  0  0  0  0  0  0  0  0  0  0  0
    3.7130    3.7869    0.0000 H   0  0  0  0  0  0  0  0  0  0  0  0
    2.8660    3.5600    0.0000 H   0  0  0  0  0  0  0  0  0  0  0  0
    3.0930    2.7131    0.0000 H   0  0  0  0  0  0  0  0  0  0  0  0
    2.2269    0.2869    0.0000 H   0  0  0  0  0  0  0  0  0  0  0  0
    2.0000   -0.5600    0.0000 H   0  0  0  0  0  0  0  0  0  0  0  0
    2.8469   -0.7869    0.0000 H   0  0  0  0  0  0  0  0  0  0  0  0
    4.2690   -0.8700    0.0000 H   0  0  0  0  0  0  0  0  0  0  0  0
   12.0632    0.8700    0.0000 H   0  0  0  0  0  0  0  0  0  0  0  0
    2.0000    1.4400    0.0000 H   0  0  0  0  0  0  0  0  0  0  0  0
    5.1350    0.8700    0.0000 H   0  0  0  0  0  0  0  0  0  0  0  0
   11.1972   -0.8700    0.0000 H   0  0  0  0  0  0  0  0  0  0  0  0
    6.0010   -0.8700    0.0000 H   0  0  0  0  0  0  0  0  0  0  0  0
   10.3312    0.8700    0.0000 H   0  0  0  0  0  0  0  0  0  0  0  0
    6.8671    0.8700    0.0000 H   0  0  0  0  0  0  0  0  0  0  0  0
    7.3346   -0.7249    0.0000 H   0  0  0  0  0  0  0  0  0  0  0  0
    8.1316   -0.7249    0.0000 H   0  0  0  0  0  0  0  0  0  0  0  0
    8.9976    0.7249    0.0000 H   0  0  0  0  0  0  0  0  0  0  0  0
    8.2006    0.7249    0.0000 H   0  0  0  0  0  0  0  0  0  0  0  0
    9.4651   -0.8700    0.0000 H   0  0  0  0  0  0  0  0  0  0  0  0
  1 19  1  0  0  0  0
  1 20  1  0  0  0  0
 19  2  1  1  0  0  0
  2 78  1  0  0  0  0
  3 22  1  0  0  0  0
  3 80  1  0  0  0  0
  4 27  1  0  0  0  0
 30  4  1  1  0  0  0
  5 30  1  0  0  0  0
  5 35  1  0  0  0  0
  6 26  1  0  0  0  0
  6 90  1  0  0  0  0
  7 28  1  0  0  0  0
  7 92  1  0  0  0  0
  8 29  1  0  0  0  0
  8 93  1  0  0  0  0
  9 28  2  0  0  0  0
 31 10  1  6  0  0  0
 10101  1  0  0  0  0
 34 11  1  1  0  0  0
 11104  1  0  0  0  0
 12 38  1  0  0  0  0
 12107  1  0  0  0  0
 13 42  1  0  0  0  0
 13112  1  0  0  0  0
 14 44  1  0  0  0  0
 14121  1  0  0  0  0
 15 49  1  0  0  0  0
 15 52  1  0  0  0  0
 48 16  1  1  0  0  0
 16130  1  0  0  0  0
 17 52  2  0  0  0  0
 33 18  1  6  0  0  0
 18 99  1  0  0  0  0
 18100  1  0  0  0  0
 19 23  1  0  0  0  0
 19 24  1  0  0  0  0
 20 21  1  0  0  0  0
 20 25  1  0  0  0  0
 20 66  1  0  0  0  0
 21 22  1  0  0  0  0
 21 28  1  0  0  0  0
 21 67  1  0  0  0  0
 22 23  1  0  0  0  0
 22 68  1  0  0  0  0
 23 69  1  0  0  0  0
 23 70  1  0  0  0  0
 24 26  1  0  0  0  0
 24 71  1  0  0  0  0
 24 72  1  0  0  0  0
 25 27  1  0  0  0  0
 25 73  1  0  0  0  0
 25 74  1  0  0  0  0
 26 29  1  0  0  0  0
 26 75  1  0  0  0  0
 27 36  1  0  0  0  0
 27 76  1  0  0  0  0
 29 32  1  0  0  0  0
 29 77  1  0  0  0  0
 30 31  1  0  0  0  0
 30 79  1  0  0  0  0
 31 33  1  0  0  0  0
 31 81  1  0  0  0  0
 32 37  1  0  0  0  0
 32 82  1  0  0  0  0
 32 83  1  0  0  0  0
 33 34  1  0  0  0  0
 33 84  1  0  0  0  0
 34 35  1  0  0  0  0
 34 85  1  0  0  0  0
 35 39  1  6  0  0  0
 35 86  1  0  0  0  0
 36 41  2  0  0  0  0
 36 87  1  0  0  0  0
 37 38  1  0  0  0  0
 37 88  1  0  0  0  0
 37 89  1  0  0  0  0
 38 40  1  0  0  0  0
 38 91  1  0  0  0  0
 39 94  1  0  0  0  0
 39 95  1  0  0  0  0
 39 96  1  0  0  0  0
 40 42  1  0  0  0  0
 40 97  1  0  0  0  0
 40 98  1  0  0  0  0
 41 45  1  0  0  0  0
 41102  1  0  0  0  0
 42 43  1  0  0  0  0
 42103  1  0  0  0  0
 43 44  1  0  0  0  0
 43105  1  0  0  0  0
 43106  1  0  0  0  0
 44 46  1  0  0  0  0
 44108  1  0  0  0  0
 45 50  2  0  0  0  0
 45109  1  0  0  0  0
 46 52  1  0  0  0  0
 46110  1  0  0  0  0
 46111  1  0  0  0  0
 47 48  1  0  0  0  0
 47 49  1  0  0  0  0
 47 53  1  6  0  0  0
 47113  1  0  0  0  0
 48 51  1  0  0  0  0
 48114  1  0  0  0  0
 49 54  1  6  0  0  0
 49115  1  0  0  0  0
 50 57  1  0  0  0  0
 50117  1  0  0  0  0
 51 55  1  6  0  0  0
 51 56  1  0  0  0  0
 51116  1  0  0  0  0
 53118  1  0  0  0  0
 53119  1  0  0  0  0
 53120  1  0  0  0  0
 54122  1  0  0  0  0
 54123  1  0  0  0  0
 54124  1  0  0  0  0
 55125  1  0  0  0  0
 55126  1  0  0  0  0
 55127  1  0  0  0  0
 56 58  2  0  0  0  0
 56128  1  0  0  0  0
 57 59  2  0  0  0  0
 57129  1  0  0  0  0
 58 60  1  0  0  0  0
 58131  1  0  0  0  0
 59 61  1  0  0  0  0
 59132  1  0  0  0  0
 60 62  2  0  0  0  0
 60133  1  0  0  0  0
 61 65  2  0  0  0  0
 61134  1  0  0  0  0
 62 63  1  0  0  0  0
 62135  1  0  0  0  0
 63 64  1  0  0  0  0
 63136  1  0  0  0  0
 63137  1  0  0  0  0
 64 65  1  0  0  0  0
 64138  1  0  0  0  0
 64139  1  0  0  0  0
 65140  1  0  0  0  0
M  END
> <PUBCHEM_COMPOUND_CID>
6433272

> <PUBCHEM_COMPOUND_CANONICALIZED>
1

> <PUBCHEM_CACTVS_COMPLEXITY>
1620

> <PUBCHEM_CACTVS_HBOND_ACCEPTOR>
18

> <PUBCHEM_CACTVS_HBOND_DONOR>
12

> <PUBCHEM_CACTVS_ROTATABLE_BOND>
3

> <PUBCHEM_CACTVS_SUBSKEYS>
AAADcfB+PgAAAAAAAAAAAAAAAAAAAAAAAAAkSAAAAAAAAAAAAAAAHgAQCAAADTzxgAcCCABABgCIACDSCAAAAAAgAAAICIEAAAgbFBYAoQAiUAAH8AAPoAPI7OzOAAAAAAAAAAAAAAAAAAAAAAAAAAAAAA==

> <PUBCHEM_IUPAC_OPENEYE_NAME>
(1S,15S,16R,17R,18S,19E,21E,25E,27E,29E,31E)-33-[(2S,3S,4S,5S,6R)-4-amino-3,5-dihydroxy-6-methyl-tetrahydropyran-2-yl]oxy-1,3,4,7,9,11,17,37-octahydroxy-15,16,18-trimethyl-13-oxo-14,39-dioxabicyclo[33.3.1]nonatriaconta-19,21,25,27,29,31-hexaene-36-carboxylic acid

> <PUBCHEM_IUPAC_CAS_NAME>
(1S,15S,16R,17R,18S,19E,21E,25E,27E,29E,31E)-33-[[(2S,3S,4S,5S,6R)-4-amino-3,5-dihydroxy-6-methyl-2-oxanyl]oxy]-1,3,4,7,9,11,17,37-octahydroxy-15,16,18-trimethyl-13-oxo-14,39-dioxabicyclo[33.3.1]nonatriaconta-19,21,25,27,29,31-hexaene-36-carboxylic acid

> <PUBCHEM_IUPAC_NAME_MARKUP>
(1<I>S</I>,15<I>S</I>,16<I>R</I>,17<I>R</I>,18<I>S</I>,19<I>E</I>,21<I>E</I>,25<I>E</I>,27<I>E</I>,29<I>E</I>,31<I>E</I>)-33-[(2<I>S</I>,3<I>S</I>,4<I>S</I>,5<I>S</I>,6<I>R</I>)-4-amino-3,5-dihydroxy-6-methyloxan-2-yl]oxy-1,3,4,7,9,11,17,37-octahydroxy-15,16,18-trimethyl-13-oxo-14,39-dioxabicyclo[33.3.1]nonatriaconta-19,21,25,27,29,31-hexaene-36-carboxylic acid

> <PUBCHEM_IUPAC_NAME>
(1S,15S,16R,17R,18S,19E,21E,25E,27E,29E,31E)-33-[(2S,3S,4S,5S,6R)-4-amino-3,5-dihydroxy-6-methyloxan-2-yl]oxy-1,3,4,7,9,11,17,37-octahydroxy-15,16,18-trimethyl-13-oxo-14,39-dioxabicyclo[33.3.1]nonatriaconta-19,21,25,27,29,31-hexaene-36-carboxylic acid

> <PUBCHEM_IUPAC_SYSTEMATIC_NAME>
(1S,15S,16R,17R,18S,19E,21E,25E,27E,29E,31E)-33-[(2S,3S,4S,5S,6R)-4-azanyl-6-methyl-3,5-bis(oxidanyl)oxan-2-yl]oxy-15,16,18-trimethyl-1,3,4,7,9,11,17,37-octakis(oxidanyl)-13-oxidanylidene-14,39-dioxabicyclo[33.3.1]nonatriaconta-19,21,25,27,29,31-hexaene-36-carboxylic acid

> <PUBCHEM_IUPAC_TRADITIONAL_NAME>
(1S,15S,16R,17R,18S,19E,21E,25E,27E,29E,31E)-33-[(2S,3S,4S,5S,6R)-4-amino-3,5-dihydroxy-6-methyl-tetrahydropyran-2-yl]oxy-1,3,4,7,9,11,17,37-octahydroxy-13-keto-15,16,18-trimethyl-14,39-dioxabicyclo[33.3.1]nonatriaconta-19,21,25,27,29,31-hexaene-36-carboxylic acid

> <PUBCHEM_IUPAC_INCHI>
InChI=1S/C47H75NO17/c1-27-17-15-13-11-9-7-5-6-8-10-12-14-16-18-34(64-46-44(58)41(48)43(57)30(4)63-46)24-38-40(45(59)60)37(54)26-47(61,65-38)25-36(53)35(52)20-19-31(49)21-32(50)22-33(51)23-39(55)62-29(3)28(2)42(27)56/h5-6,8,10-18,27-38,40-44,46,49-54,56-58,61H,7,9,19-26,48H2,1-4H3,(H,59,60)/b6-5+,10-8+,13-11+,14-12+,17-15+,18-16+/t27-,28-,29-,30+,31?,32?,33?,34?,35?,36?,37?,38?,40?,41-,42+,43+,44-,46+,47+/m0/s1

> <PUBCHEM_IUPAC_INCHIKEY>
VQOXZBDYSJBXMA-RKEBNKJGSA-N

> <PUBCHEM_XLOGP3_AA>
-0.2

> <PUBCHEM_EXACT_MASS>
925.5035

> <PUBCHEM_MOLECULAR_FORMULA>
C47H75NO17

> <PUBCHEM_MOLECULAR_WEIGHT>
926.1

> <PUBCHEM_OPENEYE_CAN_SMILES>
CC1C=CC=CCCC=CC=CC=CC=CC(CC2C(C(CC(O2)(CC(C(CCC(CC(CC(CC(=O)OC(C(C1O)C)C)O)O)O)O)O)O)O)C(=O)O)OC3C(C(C(C(O3)C)O)N)O

> <PUBCHEM_OPENEYE_ISO_SMILES>
C[C@H]1/C=C/C=C/CC/C=C/C=C/C=C/C=C/C(CC2C(C(C[C@](O2)(CC(C(CCC(CC(CC(CC(=O)O[C@H]([C@@H]([C@@H]1O)C)C)O)O)O)O)O)O)O)C(=O)O)O[C@@H]3[C@H]([C@H]([C@@H]([C@H](O3)C)O)N)O

> <PUBCHEM_CACTVS_TPSA>
320

> <PUBCHEM_MONOISOTOPIC_WEIGHT>
925.5035

> <PUBCHEM_TOTAL_CHARGE>
0

> <PUBCHEM_HEAVY_ATOM_COUNT>
65

> <PUBCHEM_ATOM_DEF_STEREO_COUNT>
10

> <PUBCHEM_ATOM_UDEF_STEREO_COUNT>
9

> <PUBCHEM_BOND_DEF_STEREO_COUNT>
6

> <PUBCHEM_BOND_UDEF_STEREO_COUNT>
0

> <PUBCHEM_ISOTOPIC_ATOM_COUNT>
0

> <PUBCHEM_COMPONENT_COUNT>
1

> <PUBCHEM_CACTVS_TAUTO_COUNT>
-1

> <PUBCHEM_COORDINATE_TYPE>
1
5
255

> <PUBCHEM_BONDANNOTATIONS>
31  10  6
34  11  5
38  12  3
42  13  3
44  14  3
48  16  5
33  18  6
19  2  5
20  25  3
21  28  3
22  3  3
35  39  6
27  4  3
30  4  5
47  53  6
49  54  6
51  55  6
26  6  3
29  8  3

$$$$
