6708713
  -OEChem-05262008342D

 83 87  0     1  0  0  0  0  0999 V2000
    2.6200   -2.8782    0.0000 O   0  0  0  0  0  0  0  0  0  0  0  0
    2.6400   -1.1462    0.0000 O   0  0  0  0  0  0  0  0  0  0  0  0
   10.4351    2.6174    0.0000 O   0  0  0  0  0  0  0  0  0  0  0  0
   12.2545    1.5855    0.0000 O   0  0  0  0  0  0  0  0  0  0  0  0
    8.7032    2.5974    0.0000 O   0  0  0  0  0  0  0  0  0  0  0  0
   11.3827    3.0822    0.0000 O   0  0  0  0  0  0  0  0  0  0  0  0
    6.9146   -1.5588    0.0000 C   0  0  1  0  0  0  0  0  0  0  0  0
    6.0046   -2.0657    0.0000 C   0  0  3  0  0  0  0  0  0  0  0  0
    7.7806   -2.0588    0.0000 C   0  0  2  0  0  0  0  0  0  0  0  0
    5.9966   -3.1073    0.0000 C   0  0  1  0  0  0  0  0  0  0  0  0
    7.7967   -3.1004    0.0000 C   0  0  0  0  0  0  0  0  0  0  0  0
    6.8986   -3.6281    0.0000 C   0  0  0  0  0  0  0  0  0  0  0  0
    6.9146   -0.5588    0.0000 C   0  0  0  0  0  0  0  0  0  0  0  0
    5.0778   -1.5016    0.0000 C   0  0  0  0  0  0  0  0  0  0  0  0
    8.6466   -1.5588    0.0000 C   0  0  0  0  0  0  0  0  0  0  0  0
    8.6466   -0.5588    0.0000 C   0  0  1  0  0  0  0  0  0  0  0  0
    5.0611   -3.6570    0.0000 C   0  0  0  0  0  0  0  0  0  0  0  0
    4.1299   -2.0296    0.0000 C   0  0  2  0  0  0  0  0  0  0  0  0
    7.7806   -0.0588    0.0000 C   0  0  0  0  0  0  0  0  0  0  0  0
    6.0486   -1.0588    0.0000 C   0  0  0  0  0  0  0  0  0  0  0  0
    4.1215   -3.1145    0.0000 C   0  0  0  0  0  0  0  0  0  0  0  0
    8.6466   -2.5588    0.0000 C   0  0  0  0  0  0  0  0  0  0  0  0
    5.9889   -4.1073    0.0000 C   0  0  0  0  0  0  0  0  0  0  0  0
    9.5406   -0.0242    0.0000 C   0  0  0  0  0  0  0  0  0  0  0  0
    9.5406   -2.0935    0.0000 C   0  0  0  0  0  0  0  0  0  0  0  0
    8.6466    0.4412    0.0000 C   0  0  0  0  0  0  0  0  0  0  0  0
    3.6399   -1.1578    0.0000 C   0  0  0  0  0  0  0  0  0  0  0  0
    3.1299   -2.0180    0.0000 C   0  0  0  0  0  0  0  0  0  0  0  0
   10.4467   -1.5797    0.0000 C   0  0  0  0  0  0  0  0  0  0  0  0
   10.4467   -0.5380    0.0000 C   0  0  0  0  0  0  0  0  0  0  0  0
    9.5155    1.0605    0.0000 C   0  0  0  0  0  0  0  0  0  0  0  0
   11.3904   -0.0028    0.0000 C   0  0  0  0  0  0  0  0  0  0  0  0
   10.4467    1.6174    0.0000 C   0  0  0  0  0  0  0  0  0  0  0  0
   11.3904    1.0822    0.0000 C   0  0  0  0  0  0  0  0  0  0  0  0
   12.2545   -0.5061    0.0000 C   0  0  0  0  0  0  0  0  0  0  0  0
    9.5633    3.1073    0.0000 C   0  0  0  0  0  0  0  0  0  0  0  0
   12.2507    2.5855    0.0000 C   0  0  0  0  0  0  0  0  0  0  0  0
    9.5518    4.1073    0.0000 C   0  0  0  0  0  0  0  0  0  0  0  0
   13.1148    3.0889    0.0000 C   0  0  0  0  0  0  0  0  0  0  0  0
    6.5379   -2.3819    0.0000 H   0  0  0  0  0  0  0  0  0  0  0  0
    8.0147   -3.6808    0.0000 H   0  0  0  0  0  0  0  0  0  0  0  0
    8.4058   -2.9848    0.0000 H   0  0  0  0  0  0  0  0  0  0  0  0
    6.5013   -4.1041    0.0000 H   0  0  0  0  0  0  0  0  0  0  0  0
    7.2996   -4.1010    0.0000 H   0  0  0  0  0  0  0  0  0  0  0  0
    6.7025    0.0238    0.0000 H   0  0  0  0  0  0  0  0  0  0  0  0
    6.3040   -0.6665    0.0000 H   0  0  0  0  0  0  0  0  0  0  0  0
    5.4860   -1.0350    0.0000 H   0  0  0  0  0  0  0  0  0  0  0  0
    4.6878   -1.0196    0.0000 H   0  0  0  0  0  0  0  0  0  0  0  0
    4.6638   -4.1330    0.0000 H   0  0  0  0  0  0  0  0  0  0  0  0
    5.4621   -4.1299    0.0000 H   0  0  0  0  0  0  0  0  0  0  0  0
    8.1792    0.4161    0.0000 H   0  0  0  0  0  0  0  0  0  0  0  0
    7.3821    0.4161    0.0000 H   0  0  0  0  0  0  0  0  0  0  0  0
    6.3586   -0.5219    0.0000 H   0  0  0  0  0  0  0  0  0  0  0  0
    5.5116   -0.7488    0.0000 H   0  0  0  0  0  0  0  0  0  0  0  0
    5.7386   -1.5958    0.0000 H   0  0  0  0  0  0  0  0  0  0  0  0
    3.5115   -3.0037    0.0000 H   0  0  0  0  0  0  0  0  0  0  0  0
    3.9080   -3.6966    0.0000 H   0  0  0  0  0  0  0  0  0  0  0  0
    8.3366   -3.0958    0.0000 H   0  0  0  0  0  0  0  0  0  0  0  0
    9.1836   -2.8688    0.0000 H   0  0  0  0  0  0  0  0  0  0  0  0
    8.9566   -2.0219    0.0000 H   0  0  0  0  0  0  0  0  0  0  0  0
    5.3689   -4.1025    0.0000 H   0  0  0  0  0  0  0  0  0  0  0  0
    5.9841   -4.7272    0.0000 H   0  0  0  0  0  0  0  0  0  0  0  0
    6.6088   -4.1120    0.0000 H   0  0  0  0  0  0  0  0  0  0  0  0
    9.5334   -2.7135    0.0000 H   0  0  0  0  0  0  0  0  0  0  0  0
    9.2666    0.4412    0.0000 H   0  0  0  0  0  0  0  0  0  0  0  0
    8.6466    1.0612    0.0000 H   0  0  0  0  0  0  0  0  0  0  0  0
    8.0266    0.4412    0.0000 H   0  0  0  0  0  0  0  0  0  0  0  0
    4.1804   -0.8540    0.0000 H   0  0  0  0  0  0  0  0  0  0  0  0
    3.3362   -0.6173    0.0000 H   0  0  0  0  0  0  0  0  0  0  0  0
    3.0994   -1.4616    0.0000 H   0  0  0  0  0  0  0  0  0  0  0  0
   10.6557   -2.1634    0.0000 H   0  0  0  0  0  0  0  0  0  0  0  0
   11.0575   -1.4736    0.0000 H   0  0  0  0  0  0  0  0  0  0  0  0
    8.9727    1.3601    0.0000 H   0  0  0  0  0  0  0  0  0  0  0  0
    2.0000   -2.8710    0.0000 H   0  0  0  0  0  0  0  0  0  0  0  0
   11.9425   -1.0419    0.0000 H   0  0  0  0  0  0  0  0  0  0  0  0
   12.7903   -0.8182    0.0000 H   0  0  0  0  0  0  0  0  0  0  0  0
   12.5666    0.0296    0.0000 H   0  0  0  0  0  0  0  0  0  0  0  0
   10.1717    4.1144    0.0000 H   0  0  0  0  0  0  0  0  0  0  0  0
    9.5446    4.7272    0.0000 H   0  0  0  0  0  0  0  0  0  0  0  0
    8.9318    4.1001    0.0000 H   0  0  0  0  0  0  0  0  0  0  0  0
   13.4268    2.5531    0.0000 H   0  0  0  0  0  0  0  0  0  0  0  0
   13.6505    3.4009    0.0000 H   0  0  0  0  0  0  0  0  0  0  0  0
   12.8027    3.6246    0.0000 H   0  0  0  0  0  0  0  0  0  0  0  0
  1 28  1  0  0  0  0
  1 74  1  0  0  0  0
  2 28  2  0  0  0  0
  3 33  1  0  0  0  0
  3 36  1  0  0  0  0
  4 34  1  0  0  0  0
  4 37  1  0  0  0  0
  5 36  2  0  0  0  0
  6 37  2  0  0  0  0
  7  8  1  0  0  0  0
  7  9  1  0  0  0  0
  7 13  1  0  0  0  0
  7 20  1  1  0  0  0
  8 10  1  0  0  0  0
  8 14  1  0  0  0  0
  8 40  1  0  0  0  0
  9 11  1  0  0  0  0
  9 15  1  0  0  0  0
  9 22  1  6  0  0  0
 10 12  1  0  0  0  0
 10 17  1  0  0  0  0
 10 23  1  6  0  0  0
 11 12  1  0  0  0  0
 11 41  1  0  0  0  0
 11 42  1  0  0  0  0
 12 43  1  0  0  0  0
 12 44  1  0  0  0  0
 13 19  1  0  0  0  0
 13 45  1  0  0  0  0
 13 46  1  0  0  0  0
 14 18  1  0  0  0  0
 14 47  1  0  0  0  0
 14 48  1  0  0  0  0
 15 16  1  0  0  0  0
 15 25  2  0  0  0  0
 16 19  1  0  0  0  0
 16 24  1  0  0  0  0
 16 26  1  6  0  0  0
 17 21  1  0  0  0  0
 17 49  1  0  0  0  0
 17 50  1  0  0  0  0
 18 21  1  0  0  0  0
 18 27  1  6  0  0  0
 18 28  1  0  0  0  0
 19 51  1  0  0  0  0
 19 52  1  0  0  0  0
 20 53  1  0  0  0  0
 20 54  1  0  0  0  0
 20 55  1  0  0  0  0
 21 56  1  0  0  0  0
 21 57  1  0  0  0  0
 22 58  1  0  0  0  0
 22 59  1  0  0  0  0
 22 60  1  0  0  0  0
 23 61  1  0  0  0  0
 23 62  1  0  0  0  0
 23 63  1  0  0  0  0
 24 30  1  0  0  0  0
 24 31  2  0  0  0  0
 25 29  1  0  0  0  0
 25 64  1  0  0  0  0
 26 65  1  0  0  0  0
 26 66  1  0  0  0  0
 26 67  1  0  0  0  0
 27 68  1  0  0  0  0
 27 69  1  0  0  0  0
 27 70  1  0  0  0  0
 29 30  1  0  0  0  0
 29 71  1  0  0  0  0
 29 72  1  0  0  0  0
 30 32  2  0  0  0  0
 31 33  1  0  0  0  0
 31 73  1  0  0  0  0
 32 34  1  0  0  0  0
 32 35  1  0  0  0  0
 33 34  2  0  0  0  0
 35 75  1  0  0  0  0
 35 76  1  0  0  0  0
 35 77  1  0  0  0  0
 36 38  1  0  0  0  0
 37 39  1  0  0  0  0
 38 78  1  0  0  0  0
 38 79  1  0  0  0  0
 38 80  1  0  0  0  0
 39 81  1  0  0  0  0
 39 82  1  0  0  0  0
 39 83  1  0  0  0  0
M  END
> <PUBCHEM_COMPOUND_CID>
6708713

> <PUBCHEM_COMPOUND_CANONICALIZED>
1

> <PUBCHEM_CACTVS_COMPLEXITY>
1100

> <PUBCHEM_CACTVS_HBOND_ACCEPTOR>
6

> <PUBCHEM_CACTVS_HBOND_DONOR>
1

> <PUBCHEM_CACTVS_ROTATABLE_BOND>
5

> <PUBCHEM_CACTVS_SUBSKEYS>
AAADcfB8OAAAAAAAAAAAAAAAAAAAAAAAAAAwYMGCAAAAAADBAAAAGgAACAAADwSAmAAyDoAABgCIAiDSCAACCAAgIAAAiAEGiIgNJjKEMBqCeiKkwBEKqAeIyPCPoAADAAAYQADAAAYAADCAAAAAAAAAAA==

> <PUBCHEM_IUPAC_OPENEYE_NAME>
(2R,4aS,6aS,6aS,14aS)-10,11-diacetoxy-2,4a,6a,6a,9,14a-hexamethyl-3,4,5,6,8,13,14,14b-octahydro-1H-picene-2-carboxylic acid

> <PUBCHEM_IUPAC_CAS_NAME>
(2R,4aS,6aS,6aS,14aS)-10,11-diacetyloxy-2,4a,6a,6a,9,14a-hexamethyl-3,4,5,6,8,13,14,14b-octahydro-1H-picene-2-carboxylic acid

> <PUBCHEM_IUPAC_NAME_MARKUP>
(2<I>R</I>,4<I>a</I><I>S</I>,6<I>a</I><I>S</I>,6<I>a</I><I>S</I>,14<I>a</I><I>S</I>)-10,11-diacetyloxy-2,4<I>a</I>,6<I>a</I>,6<I>a</I>,9,14<I>a</I>-hexamethyl-3,4,5,6,8,13,14,14<I>b</I>-octahydro-1<I>H</I>-picene-2-carboxylic acid

> <PUBCHEM_IUPAC_NAME>
(2R,4aS,6aS,6aS,14aS)-10,11-diacetyloxy-2,4a,6a,6a,9,14a-hexamethyl-3,4,5,6,8,13,14,14b-octahydro-1H-picene-2-carboxylic acid

> <PUBCHEM_IUPAC_SYSTEMATIC_NAME>
(2R,4aS,6aS,6aS,14aS)-10,11-diacetyloxy-2,4a,6a,6a,9,14a-hexamethyl-3,4,5,6,8,13,14,14b-octahydro-1H-picene-2-carboxylic acid

> <PUBCHEM_IUPAC_TRADITIONAL_NAME>
(2R,4aS,6aS,6aS,14aS)-10,11-diacetoxy-2,4a,6a,6a,9,14a-hexamethyl-3,4,5,6,8,13,14,14b-octahydro-1H-picene-2-carboxylic acid

> <PUBCHEM_IUPAC_INCHI>
InChI=1S/C33H44O6/c1-19-22-9-10-25-31(6,23(22)17-24(38-20(2)34)27(19)39-21(3)35)14-16-33(8)26-18-30(5,28(36)37)12-11-29(26,4)13-15-32(25,33)7/h10,17,26H,9,11-16,18H2,1-8H3,(H,36,37)/t26?,29-,30-,31+,32-,33+/m1/s1

> <PUBCHEM_IUPAC_INCHIKEY>
SAOOBRUHTPONGX-UANCAJPASA-N

> <PUBCHEM_XLOGP3_AA>
7.6

> <PUBCHEM_EXACT_MASS>
536.313789

> <PUBCHEM_MOLECULAR_FORMULA>
C33H44O6

> <PUBCHEM_MOLECULAR_WEIGHT>
536.7

> <PUBCHEM_OPENEYE_CAN_SMILES>
CC1=C2CC=C3C(C2=CC(=C1OC(=O)C)OC(=O)C)(CCC4(C3(CCC5(C4CC(CC5)(C)C(=O)O)C)C)C)C

> <PUBCHEM_OPENEYE_ISO_SMILES>
CC1=C2CC=C3[C@](C2=CC(=C1OC(=O)C)OC(=O)C)(CC[C@@]4([C@@]3(CC[C@@]5(C4C[C@](CC5)(C)C(=O)O)C)C)C)C

> <PUBCHEM_CACTVS_TPSA>
89.9

> <PUBCHEM_MONOISOTOPIC_WEIGHT>
536.313789

> <PUBCHEM_TOTAL_CHARGE>
0

> <PUBCHEM_HEAVY_ATOM_COUNT>
39

> <PUBCHEM_ATOM_DEF_STEREO_COUNT>
5

> <PUBCHEM_ATOM_UDEF_STEREO_COUNT>
1

> <PUBCHEM_BOND_DEF_STEREO_COUNT>
0

> <PUBCHEM_BOND_UDEF_STEREO_COUNT>
0

> <PUBCHEM_ISOTOPIC_ATOM_COUNT>
0

> <PUBCHEM_COMPONENT_COUNT>
1

> <PUBCHEM_CACTVS_TAUTO_COUNT>
-1

> <PUBCHEM_COORDINATE_TYPE>
1
5
255

> <PUBCHEM_BONDANNOTATIONS>
10  23  6
16  26  6
18  27  6
24  30  8
24  31  8
30  32  8
31  33  8
32  34  8
33  34  8
7  20  5
8  14  3
9  22  6

$$$$
