78358496
  -OEChem-05262008342D

130132  0     1  0  0  0  0  0999 V2000
    7.1962   -2.4400    0.0000 O   0  0  0  0  0  0  0  0  0  0  0  0
    7.1962   -3.4400    0.0000 O   0  0  0  0  0  0  0  0  0  0  0  0
    4.5981   -1.9400    0.0000 O   0  0  0  0  0  0  0  0  0  0  0  0
    8.9282   -6.4400    0.0000 O   0  0  0  0  0  0  0  0  0  0  0  0
    2.8660   -1.9400    0.0000 O   0  0  0  0  0  0  0  0  0  0  0  0
    4.5981    1.0600    0.0000 O   0  0  0  0  0  0  0  0  0  0  0  0
    7.9033    6.2671    0.0000 O   0  0  0  0  0  0  0  0  0  0  0  0
    6.3301    4.0600    0.0000 O   0  0  0  0  0  0  0  0  0  0  0  0
    6.2114    4.7337    0.0000 O   0  0  0  0  0  0  0  0  0  0  0  0
    5.4641    2.5600    0.0000 O   0  0  0  0  0  0  0  0  0  0  0  0
    6.3301    7.0600    0.0000 O   0  0  0  0  0  0  0  0  0  0  0  0
    6.3301   -2.9400    0.0000 C   0  0  2  0  0  0  0  0  0  0  0  0
    5.4641   -2.4400    0.0000 C   0  0  1  0  0  0  0  0  0  0  0  0
    5.4641   -1.4400    0.0000 C   0  0  3  0  0  0  0  0  0  0  0  0
    6.3301   -0.9400    0.0000 C   0  0  3  0  0  0  0  0  0  0  0  0
    5.4641   -3.4400    0.0000 C   0  0  0  0  0  0  0  0  0  0  0  0
    7.1962   -1.4400    0.0000 C   0  0  2  0  0  0  0  0  0  0  0  0
    6.3301   -4.9400    0.0000 C   0  0  1  0  0  0  0  0  0  0  0  0
    7.1962   -4.4400    0.0000 C   0  0  1  0  0  0  0  0  0  0  0  0
    5.4641   -4.4400    0.0000 C   0  0  0  0  0  0  0  0  0  0  0  0
    8.0622   -1.9400    0.0000 C   0  0  0  0  0  0  0  0  0  0  0  0
    4.5981   -2.9400    0.0000 C   0  0  0  0  0  0  0  0  0  0  0  0
    6.3301    0.0600    0.0000 C   0  0  0  0  0  0  0  0  0  0  0  0
    8.0622   -4.9400    0.0000 C   0  0  0  0  0  0  0  0  0  0  0  0
    6.3301   -5.9400    0.0000 C   0  0  0  0  0  0  0  0  0  0  0  0
    8.9282   -1.4400    0.0000 C   0  0  0  0  0  0  0  0  0  0  0  0
    8.0622   -5.9400    0.0000 C   0  0  3  0  0  0  0  0  0  0  0  0
    8.9282   -0.4400    0.0000 C   0  0  1  0  0  0  0  0  0  0  0  0
    3.7320   -1.4400    0.0000 C   0  0  0  0  0  0  0  0  0  0  0  0
    8.0622    0.0600    0.0000 C   0  0  0  0  0  0  0  0  0  0  0  0
    7.1962   -6.4400    0.0000 C   0  0  0  0  0  0  0  0  0  0  0  0
    9.7942    0.0600    0.0000 C   0  0  0  0  0  0  0  0  0  0  0  0
    3.7320   -0.4400    0.0000 C   0  0  0  0  0  0  0  0  0  0  0  0
    7.5622    0.9260    0.0000 C   0  0  0  0  0  0  0  0  0  0  0  0
    9.7942    1.0600    0.0000 C   0  0  0  0  0  0  0  0  0  0  0  0
    2.8660    0.0600    0.0000 C   0  0  0  0  0  0  0  0  0  0  0  0
    2.8660    1.0600    0.0000 C   0  0  1  0  0  0  0  0  0  0  0  0
    3.7320    1.5600    0.0000 C   0  0  2  0  0  0  0  0  0  0  0  0
    3.7320    2.5600    0.0000 C   0  0  2  0  0  0  0  0  0  0  0  0
    8.9282    1.5600    0.0000 C   0  0  0  0  0  0  0  0  0  0  0  0
    4.5981    4.0600    0.0000 C   0  0  3  0  0  0  0  0  0  0  0  0
    2.0000    1.5600    0.0000 C   0  0  0  0  0  0  0  0  0  0  0  0
    5.4641    4.5600    0.0000 C   0  0  1  0  0  0  0  0  0  0  0  0
    7.1962    5.5600    0.0000 C   0  0  1  0  0  0  0  0  0  0  0  0
    8.0622    4.0600    0.0000 C   0  0  2  0  0  0  0  0  0  0  0  0
    5.4641    5.5600    0.0000 C   0  0  2  0  0  0  0  0  0  0  0  0
    7.1962    4.5600    0.0000 C   0  0  1  0  0  0  0  0  0  0  0  0
    4.5981    3.0600    0.0000 C   0  0  0  0  0  0  0  0  0  0  0  0
    8.0622    3.0600    0.0000 C   0  0  0  0  0  0  0  0  0  0  0  0
    8.9282    2.5600    0.0000 C   0  0  0  0  0  0  0  0  0  0  0  0
    6.3301    6.0600    0.0000 C   0  0  0  0  0  0  0  0  0  0  0  0
    2.8660    3.0600    0.0000 C   0  0  0  0  0  0  0  0  0  0  0  0
    3.7320    4.5600    0.0000 C   0  0  0  0  0  0  0  0  0  0  0  0
    8.1924    5.4728    0.0000 C   0  0  0  0  0  0  0  0  0  0  0  0
    4.5981    6.0600    0.0000 C   0  0  0  0  0  0  0  0  0  0  0  0
    8.9282    4.5600    0.0000 C   0  0  0  0  0  0  0  0  0  0  0  0
    4.9272   -2.1300    0.0000 H   0  0  0  0  0  0  0  0  0  0  0  0
    5.1541   -0.9031    0.0000 H   0  0  0  0  0  0  0  0  0  0  0  0
    5.7932   -0.6300    0.0000 H   0  0  0  0  0  0  0  0  0  0  0  0
    5.2520   -2.8574    0.0000 H   0  0  0  0  0  0  0  0  0  0  0  0
    4.8535   -3.5477    0.0000 H   0  0  0  0  0  0  0  0  0  0  0  0
    7.1962   -0.5900    0.0000 H   0  0  0  0  0  0  0  0  0  0  0  0
    6.8671   -5.2500    0.0000 H   0  0  0  0  0  0  0  0  0  0  0  0
    7.7331   -4.1300    0.0000 H   0  0  0  0  0  0  0  0  0  0  0  0
    4.8535   -4.3323    0.0000 H   0  0  0  0  0  0  0  0  0  0  0  0
    5.2520   -5.0226    0.0000 H   0  0  0  0  0  0  0  0  0  0  0  0
    7.6636   -2.4150    0.0000 H   0  0  0  0  0  0  0  0  0  0  0  0
    8.4607   -2.4150    0.0000 H   0  0  0  0  0  0  0  0  0  0  0  0
    4.2881   -2.4031    0.0000 H   0  0  0  0  0  0  0  0  0  0  0  0
    4.0611   -3.2500    0.0000 H   0  0  0  0  0  0  0  0  0  0  0  0
    4.9081   -3.4769    0.0000 H   0  0  0  0  0  0  0  0  0  0  0  0
    6.9501    0.0600    0.0000 H   0  0  0  0  0  0  0  0  0  0  0  0
    6.3301    0.6800    0.0000 H   0  0  0  0  0  0  0  0  0  0  0  0
    5.7101    0.0600    0.0000 H   0  0  0  0  0  0  0  0  0  0  0  0
    8.6728   -5.0477    0.0000 H   0  0  0  0  0  0  0  0  0  0  0  0
    8.2742   -4.3574    0.0000 H   0  0  0  0  0  0  0  0  0  0  0  0
    5.7101   -5.9400    0.0000 H   0  0  0  0  0  0  0  0  0  0  0  0
    6.3301   -6.5600    0.0000 H   0  0  0  0  0  0  0  0  0  0  0  0
    6.9501   -5.9400    0.0000 H   0  0  0  0  0  0  0  0  0  0  0  0
    9.1403   -2.0226    0.0000 H   0  0  0  0  0  0  0  0  0  0  0  0
    9.5388   -1.3323    0.0000 H   0  0  0  0  0  0  0  0  0  0  0  0
    8.0622   -6.5600    0.0000 H   0  0  0  0  0  0  0  0  0  0  0  0
    8.9282    0.1800    0.0000 H   0  0  0  0  0  0  0  0  0  0  0  0
    7.4516   -0.0477    0.0000 H   0  0  0  0  0  0  0  0  0  0  0  0
    8.5006    0.4984    0.0000 H   0  0  0  0  0  0  0  0  0  0  0  0
    6.8862   -5.9031    0.0000 H   0  0  0  0  0  0  0  0  0  0  0  0
    6.6592   -6.7500    0.0000 H   0  0  0  0  0  0  0  0  0  0  0  0
    7.5062   -6.9769    0.0000 H   0  0  0  0  0  0  0  0  0  0  0  0
   10.3312   -0.2500    0.0000 H   0  0  0  0  0  0  0  0  0  0  0  0
    8.9282   -7.0600    0.0000 H   0  0  0  0  0  0  0  0  0  0  0  0
    4.2690   -0.1300    0.0000 H   0  0  0  0  0  0  0  0  0  0  0  0
    8.0991    1.2360    0.0000 H   0  0  0  0  0  0  0  0  0  0  0  0
    7.2522    1.4630    0.0000 H   0  0  0  0  0  0  0  0  0  0  0  0
    7.0252    0.6160    0.0000 H   0  0  0  0  0  0  0  0  0  0  0  0
   10.3312    1.3700    0.0000 H   0  0  0  0  0  0  0  0  0  0  0  0
    2.3291   -0.2500    0.0000 H   0  0  0  0  0  0  0  0  0  0  0  0
    2.8660    1.6800    0.0000 H   0  0  0  0  0  0  0  0  0  0  0  0
    3.7320    0.9400    0.0000 H   0  0  0  0  0  0  0  0  0  0  0  0
    3.7320    3.1800    0.0000 H   0  0  0  0  0  0  0  0  0  0  0  0
    8.3082    1.5600    0.0000 H   0  0  0  0  0  0  0  0  0  0  0  0
    4.5981    4.6800    0.0000 H   0  0  0  0  0  0  0  0  0  0  0  0
    5.4641    3.9400    0.0000 H   0  0  0  0  0  0  0  0  0  0  0  0
    2.3100    2.0969    0.0000 H   0  0  0  0  0  0  0  0  0  0  0  0
    1.4631    1.8700    0.0000 H   0  0  0  0  0  0  0  0  0  0  0  0
    1.6900    1.0231    0.0000 H   0  0  0  0  0  0  0  0  0  0  0  0
    5.4641    6.1800    0.0000 H   0  0  0  0  0  0  0  0  0  0  0  0
    8.0622    4.6800    0.0000 H   0  0  0  0  0  0  0  0  0  0  0  0
    6.9841    3.9774    0.0000 H   0  0  0  0  0  0  0  0  0  0  0  0
    7.4516    3.1677    0.0000 H   0  0  0  0  0  0  0  0  0  0  0  0
    7.8501    2.4774    0.0000 H   0  0  0  0  0  0  0  0  0  0  0  0
    9.4651    2.8700    0.0000 H   0  0  0  0  0  0  0  0  0  0  0  0
    3.1760    3.5969    0.0000 H   0  0  0  0  0  0  0  0  0  0  0  0
    2.3291    3.3700    0.0000 H   0  0  0  0  0  0  0  0  0  0  0  0
    2.5560    2.5231    0.0000 H   0  0  0  0  0  0  0  0  0  0  0  0
    4.0420    5.0969    0.0000 H   0  0  0  0  0  0  0  0  0  0  0  0
    3.1951    4.8700    0.0000 H   0  0  0  0  0  0  0  0  0  0  0  0
    3.4220    4.0231    0.0000 H   0  0  0  0  0  0  0  0  0  0  0  0
    5.1350    1.3700    0.0000 H   0  0  0  0  0  0  0  0  0  0  0  0
    8.1383    4.8552    0.0000 H   0  0  0  0  0  0  0  0  0  0  0  0
    8.8100    5.4188    0.0000 H   0  0  0  0  0  0  0  0  0  0  0  0
    8.2464    6.0905    0.0000 H   0  0  0  0  0  0  0  0  0  0  0  0
    4.9081    6.5969    0.0000 H   0  0  0  0  0  0  0  0  0  0  0  0
    4.0611    6.3700    0.0000 H   0  0  0  0  0  0  0  0  0  0  0  0
    4.2881    5.5231    0.0000 H   0  0  0  0  0  0  0  0  0  0  0  0
    9.2382    4.0231    0.0000 H   0  0  0  0  0  0  0  0  0  0  0  0
    9.4651    4.8700    0.0000 H   0  0  0  0  0  0  0  0  0  0  0  0
    8.6182    5.0969    0.0000 H   0  0  0  0  0  0  0  0  0  0  0  0
    7.7428    6.8660    0.0000 H   0  0  0  0  0  0  0  0  0  0  0  0
    6.3301    3.4400    0.0000 H   0  0  0  0  0  0  0  0  0  0  0  0
    6.3191    5.3443    0.0000 H   0  0  0  0  0  0  0  0  0  0  0  0
  1 12  1  0  0  0  0
  1 17  1  0  0  0  0
 12  2  1  6  0  0  0
  2 19  1  0  0  0  0
  3 14  1  0  0  0  0
  3 29  1  0  0  0  0
  4 27  1  0  0  0  0
  4 90  1  0  0  0  0
  5 29  2  0  0  0  0
 38  6  1  6  0  0  0
  6118  1  0  0  0  0
 44  7  1  1  0  0  0
  7128  1  0  0  0  0
 43  8  1  1  0  0  0
  8129  1  0  0  0  0
 47  9  1  1  0  0  0
  9130  1  0  0  0  0
 10 48  2  0  0  0  0
 11 51  2  0  0  0  0
 12 13  1  0  0  0  0
 12 16  1  0  0  0  0
 13 14  1  0  0  0  0
 13 22  1  6  0  0  0
 13 57  1  0  0  0  0
 14 15  1  0  0  0  0
 14 58  1  0  0  0  0
 15 17  1  0  0  0  0
 15 23  1  0  0  0  0
 15 59  1  0  0  0  0
 16 20  1  0  0  0  0
 16 60  1  0  0  0  0
 16 61  1  0  0  0  0
 17 21  1  0  0  0  0
 17 62  1  1  0  0  0
 18 19  1  0  0  0  0
 18 20  1  0  0  0  0
 18 25  1  6  0  0  0
 18 63  1  0  0  0  0
 19 24  1  6  0  0  0
 19 64  1  0  0  0  0
 20 65  1  0  0  0  0
 20 66  1  0  0  0  0
 21 26  1  0  0  0  0
 21 67  1  0  0  0  0
 21 68  1  0  0  0  0
 22 69  1  0  0  0  0
 22 70  1  0  0  0  0
 22 71  1  0  0  0  0
 23 72  1  0  0  0  0
 23 73  1  0  0  0  0
 23 74  1  0  0  0  0
 24 27  1  0  0  0  0
 24 75  1  0  0  0  0
 24 76  1  0  0  0  0
 25 77  1  0  0  0  0
 25 78  1  0  0  0  0
 25 79  1  0  0  0  0
 26 28  1  0  0  0  0
 26 80  1  0  0  0  0
 26 81  1  0  0  0  0
 27 31  1  0  0  0  0
 27 82  1  0  0  0  0
 28 30  1  1  0  0  0
 28 32  1  0  0  0  0
 28 83  1  0  0  0  0
 29 33  1  0  0  0  0
 30 34  1  0  0  0  0
 30 84  1  0  0  0  0
 30 85  1  0  0  0  0
 31 86  1  0  0  0  0
 31 87  1  0  0  0  0
 31 88  1  0  0  0  0
 32 35  2  0  0  0  0
 32 89  1  0  0  0  0
 33 36  2  0  0  0  0
 33 91  1  0  0  0  0
 34 92  1  0  0  0  0
 34 93  1  0  0  0  0
 34 94  1  0  0  0  0
 35 40  1  0  0  0  0
 35 95  1  0  0  0  0
 36 37  1  0  0  0  0
 36 96  1  0  0  0  0
 37 38  1  0  0  0  0
 37 42  1  6  0  0  0
 37 97  1  0  0  0  0
 38 39  1  0  0  0  0
 38 98  1  0  0  0  0
 39 48  1  0  0  0  0
 39 52  1  1  0  0  0
 39 99  1  0  0  0  0
 40 50  2  0  0  0  0
 40100  1  0  0  0  0
 41 43  1  0  0  0  0
 41 48  1  0  0  0  0
 41 53  1  0  0  0  0
 41101  1  0  0  0  0
 42103  1  0  0  0  0
 42104  1  0  0  0  0
 42105  1  0  0  0  0
 43 46  1  0  0  0  0
 43102  1  0  0  0  0
 44 47  1  0  0  0  0
 44 51  1  0  0  0  0
 44 54  1  0  0  0  0
 45 47  1  0  0  0  0
 45 49  1  0  0  0  0
 45 56  1  1  0  0  0
 45107  1  0  0  0  0
 46 51  1  0  0  0  0
 46 55  1  1  0  0  0
 46106  1  0  0  0  0
 47108  1  0  0  0  0
 49 50  1  0  0  0  0
 49109  1  0  0  0  0
 49110  1  0  0  0  0
 50111  1  0  0  0  0
 52112  1  0  0  0  0
 52113  1  0  0  0  0
 52114  1  0  0  0  0
 53115  1  0  0  0  0
 53116  1  0  0  0  0
 53117  1  0  0  0  0
 54119  1  0  0  0  0
 54120  1  0  0  0  0
 54121  1  0  0  0  0
 55122  1  0  0  0  0
 55123  1  0  0  0  0
 55124  1  0  0  0  0
 56125  1  0  0  0  0
 56126  1  0  0  0  0
 56127  1  0  0  0  0
M  END
> <PUBCHEM_COMPOUND_CID>
78358496

> <PUBCHEM_COMPOUND_CANONICALIZED>
1

> <PUBCHEM_CACTVS_COMPLEXITY>
1390

> <PUBCHEM_CACTVS_HBOND_ACCEPTOR>
11

> <PUBCHEM_CACTVS_HBOND_DONOR>
5

> <PUBCHEM_CACTVS_ROTATABLE_BOND>
3

> <PUBCHEM_CACTVS_SUBSKEYS>
AAADcfB8PAAAAAAAAAAAAAAAAAAAAAAAAAAkSAAAAAAAAAAAAAAAGgAACAAADVSggAICCAAABgCIAKDSCAIAAAAgAAAICAFAAEgZFBYAIQAiUAAF4AANoYPI6vyuAAAAAAAAAAAAAAAAAAAAAAAAAAAAAA==

> <PUBCHEM_IUPAC_OPENEYE_NAME>
(4E,5'R,6S,6'R,7R,8R,11S,12R,14S,15R,16S,18E,20Z,22R,25S,27S,28R)-22-ethyl-7,11,14,15-tetrahydroxy-6'-(2-hydroxypropyl)-5',6,8,10,12,14,16,28,29-nonamethyl-spiro[2,26-dioxabicyclo[23.3.1]nonacosa-4,18,20-triene-27,2'-tetrahydropyran]-3,9,13-trione

> <PUBCHEM_IUPAC_CAS_NAME>
(4E,5'R,6S,6'R,7R,8R,11S,12R,14S,15R,16S,18E,20Z,22R,25S,27S,28R)-22-ethyl-7,11,14,15-tetrahydroxy-6'-(2-hydroxypropyl)-5',6,8,10,12,14,16,28,29-nonamethylspiro[2,26-dioxabicyclo[23.3.1]nonacosa-4,18,20-triene-27,2'-oxane]-3,9,13-trione

> <PUBCHEM_IUPAC_NAME_MARKUP>
(4<I>E</I>,5&apos;<I>R</I>,6<I>S</I>,6&apos;<I>R</I>,7<I>R</I>,8<I>R</I>,11<I>S</I>,12<I>R</I>,14<I>S</I>,15<I>R</I>,16<I>S</I>,18<I>E</I>,20<I>Z</I>,22<I>R</I>,25<I>S</I>,27<I>S</I>,28<I>R</I>)-22-ethyl-7,11,14,15-tetrahydroxy-6&apos;-(2-hydroxypropyl)-5&apos;,6,8,10,12,14,16,28,29-nonamethylspiro[2,26-dioxabicyclo[23.3.1]nonacosa-4,18,20-triene-27,2&apos;-oxane]-3,9,13-trione

> <PUBCHEM_IUPAC_NAME>
(4E,5'R,6S,6'R,7R,8R,11S,12R,14S,15R,16S,18E,20Z,22R,25S,27S,28R)-22-ethyl-7,11,14,15-tetrahydroxy-6'-(2-hydroxypropyl)-5',6,8,10,12,14,16,28,29-nonamethylspiro[2,26-dioxabicyclo[23.3.1]nonacosa-4,18,20-triene-27,2'-oxane]-3,9,13-trione

> <PUBCHEM_IUPAC_SYSTEMATIC_NAME>
(4E,5'R,6S,6'R,7R,8R,11S,12R,14S,15R,16S,18E,20Z,22R,25S,27S,28R)-22-ethyl-5',6,8,10,12,14,16,28,29-nonamethyl-7,11,14,15-tetrakis(oxidanyl)-6'-(2-oxidanylpropyl)spiro[2,26-dioxabicyclo[23.3.1]nonacosa-4,18,20-triene-27,2'-oxane]-3,9,13-trione

> <PUBCHEM_IUPAC_TRADITIONAL_NAME>
(4E,5'R,6S,6'R,7R,8R,11S,12R,14S,15R,16S,18E,20Z,22R,25S,27S,28R)-22-ethyl-7,11,14,15-tetrahydroxy-6'-(2-hydroxypropyl)-5',6,8,10,12,14,16,28,29-nonamethyl-spiro[2,26-dioxabicyclo[23.3.1]nonacosa-4,18,20-triene-27,2'-tetrahydropyran]-3,9,13-trione

> <PUBCHEM_IUPAC_INCHI>
InChI=1S/C45H74O11/c1-12-34-17-15-13-14-16-27(4)42(51)44(11,53)43(52)32(9)40(50)31(8)39(49)30(7)38(48)26(3)18-21-37(47)54-41-29(6)35(20-19-34)55-45(33(41)10)23-22-25(2)36(56-45)24-28(5)46/h13-15,17-18,21,25-36,38,40-42,46,48,50-51,53H,12,16,19-20,22-24H2,1-11H3/b14-13+,17-15-,21-18+/t25-,26+,27+,28?,29?,30-,31?,32-,33-,34+,35+,36-,38-,40+,41?,42-,44+,45-/m1/s1

> <PUBCHEM_IUPAC_INCHIKEY>
MNULEGDCPYONBU-DJRUDOHVSA-N

> <PUBCHEM_XLOGP3_AA>
7.1

> <PUBCHEM_EXACT_MASS>
790.523113

> <PUBCHEM_MOLECULAR_FORMULA>
C45H74O11

> <PUBCHEM_MOLECULAR_WEIGHT>
791.1

> <PUBCHEM_OPENEYE_CAN_SMILES>
CCC1CCC2C(C(C(C3(O2)CCC(C(O3)CC(C)O)C)C)OC(=O)C=CC(C(C(C(=O)C(C(C(C(=O)C(C(C(CC=CC=C1)C)O)(C)O)C)O)C)C)O)C)C

> <PUBCHEM_OPENEYE_ISO_SMILES>
CC[C@@H]/1CC[C@H]2C(C([C@H]([C@@]3(O2)CC[C@H]([C@H](O3)CC(C)O)C)C)OC(=O)/C=C/[C@@H]([C@H]([C@H](C(=O)C([C@@H]([C@H](C(=O)[C@@]([C@@H]([C@H](C/C=C/C=C1)C)O)(C)O)C)O)C)C)O)C)C

> <PUBCHEM_CACTVS_TPSA>
180

> <PUBCHEM_MONOISOTOPIC_WEIGHT>
790.523113

> <PUBCHEM_TOTAL_CHARGE>
0

> <PUBCHEM_HEAVY_ATOM_COUNT>
56

> <PUBCHEM_ATOM_DEF_STEREO_COUNT>
14

> <PUBCHEM_ATOM_UDEF_STEREO_COUNT>
4

> <PUBCHEM_BOND_DEF_STEREO_COUNT>
3

> <PUBCHEM_BOND_UDEF_STEREO_COUNT>
0

> <PUBCHEM_ISOTOPIC_ATOM_COUNT>
0

> <PUBCHEM_COMPONENT_COUNT>
1

> <PUBCHEM_CACTVS_TAUTO_COUNT>
-1

> <PUBCHEM_COORDINATE_TYPE>
1
5
255

> <PUBCHEM_BONDANNOTATIONS>
13  22  6
15  23  3
17  62  5
18  25  6
19  24  6
12  2  6
28  30  5
14  3  3
37  42  6
39  52  5
27  4  3
41  53  3
45  56  5
46  55  5
38  6  6
44  7  5
43  8  5
47  9  5

$$$$
