98888
  -OEChem-05262008352D

 24 24  0     0  0  0  0  0  0999 V2000
    5.1350    2.1270    0.0000 N   0  0  0  0  0  0  0  0  0  0  0  0
    4.2690   -0.3730    0.0000 N   0  0  0  0  0  0  0  0  0  0  0  0
    2.5369   -2.3730    0.0000 N   0  0  0  0  0  0  0  0  0  0  0  0
    4.6350    2.9930    0.0000 C   0  0  0  0  0  0  0  0  0  0  0  0
    5.6350    2.9930    0.0000 C   0  0  0  0  0  0  0  0  0  0  0  0
    5.1350    1.1270    0.0000 C   0  0  0  0  0  0  0  0  0  0  0  0
    4.2690    0.6270    0.0000 C   0  0  0  0  0  0  0  0  0  0  0  0
    3.4030   -0.8730    0.0000 C   0  0  0  0  0  0  0  0  0  0  0  0
    3.4030   -1.8730    0.0000 C   0  0  0  0  0  0  0  0  0  0  0  0
    4.5274    3.6036    0.0000 H   0  0  0  0  0  0  0  0  0  0  0  0
    4.0524    2.7810    0.0000 H   0  0  0  0  0  0  0  0  0  0  0  0
    6.2176    2.7810    0.0000 H   0  0  0  0  0  0  0  0  0  0  0  0
    5.7427    3.6036    0.0000 H   0  0  0  0  0  0  0  0  0  0  0  0
    5.3471    0.5444    0.0000 H   0  0  0  0  0  0  0  0  0  0  0  0
    5.7456    1.2346    0.0000 H   0  0  0  0  0  0  0  0  0  0  0  0
    4.0569    1.2096    0.0000 H   0  0  0  0  0  0  0  0  0  0  0  0
    3.6584    0.5193    0.0000 H   0  0  0  0  0  0  0  0  0  0  0  0
    4.8059   -0.6830    0.0000 H   0  0  0  0  0  0  0  0  0  0  0  0
    3.1909   -0.2904    0.0000 H   0  0  0  0  0  0  0  0  0  0  0  0
    2.7924   -0.9807    0.0000 H   0  0  0  0  0  0  0  0  0  0  0  0
    3.6150   -2.4556    0.0000 H   0  0  0  0  0  0  0  0  0  0  0  0
    4.0135   -1.7654    0.0000 H   0  0  0  0  0  0  0  0  0  0  0  0
    2.5369   -2.9930    0.0000 H   0  0  0  0  0  0  0  0  0  0  0  0
    2.0000   -2.0630    0.0000 H   0  0  0  0  0  0  0  0  0  0  0  0
  1  4  1  0  0  0  0
  1  5  1  0  0  0  0
  1  6  1  0  0  0  0
  2  7  1  0  0  0  0
  2  8  1  0  0  0  0
  2 18  1  0  0  0  0
  3  9  1  0  0  0  0
  3 23  1  0  0  0  0
  3 24  1  0  0  0  0
  4  5  1  0  0  0  0
  4 10  1  0  0  0  0
  4 11  1  0  0  0  0
  5 12  1  0  0  0  0
  5 13  1  0  0  0  0
  6  7  1  0  0  0  0
  6 14  1  0  0  0  0
  6 15  1  0  0  0  0
  7 16  1  0  0  0  0
  7 17  1  0  0  0  0
  8  9  1  0  0  0  0
  8 19  1  0  0  0  0
  8 20  1  0  0  0  0
  9 21  1  0  0  0  0
  9 22  1  0  0  0  0
M  END
> <PUBCHEM_COMPOUND_CID>
98888

> <PUBCHEM_COMPOUND_CANONICALIZED>
1

> <PUBCHEM_CACTVS_COMPLEXITY>
70.7

> <PUBCHEM_CACTVS_HBOND_ACCEPTOR>
3

> <PUBCHEM_CACTVS_HBOND_DONOR>
2

> <PUBCHEM_CACTVS_ROTATABLE_BOND>
5

> <PUBCHEM_CACTVS_SUBSKEYS>
AAADccBjAAAAAAAAAAAAAAAAFgAAAAAAAAAAAAAAAAAAAAAAAAAAHAAQAAAAAADBAAQAAAPAAAAAAAAAAAAAAAAAAAAAAIAIAAAAQAAAAAAQAAAAEACAAAAAAAAAAAAAAAAAAAAAAAAAAAAAAAAAAAAAAA==

> <PUBCHEM_IUPAC_OPENEYE_NAME>
N'-[2-(aziridin-1-yl)ethyl]ethane-1,2-diamine

> <PUBCHEM_IUPAC_CAS_NAME>
N'-[2-(1-aziridinyl)ethyl]ethane-1,2-diamine

> <PUBCHEM_IUPAC_NAME_MARKUP>
<I>N</I>&apos;-[2-(aziridin-1-yl)ethyl]ethane-1,2-diamine

> <PUBCHEM_IUPAC_NAME>
N'-[2-(aziridin-1-yl)ethyl]ethane-1,2-diamine

> <PUBCHEM_IUPAC_SYSTEMATIC_NAME>
N'-[2-(aziridin-1-yl)ethyl]ethane-1,2-diamine

> <PUBCHEM_IUPAC_TRADITIONAL_NAME>
2-aminoethyl(2-ethyleniminoethyl)amine

> <PUBCHEM_IUPAC_INCHI>
InChI=1S/C6H15N3/c7-1-2-8-3-4-9-5-6-9/h8H,1-7H2

> <PUBCHEM_IUPAC_INCHIKEY>
XJNAQZHMIAKQOK-UHFFFAOYSA-N

> <PUBCHEM_XLOGP3_AA>
-1.3

> <PUBCHEM_EXACT_MASS>
129.126598

> <PUBCHEM_MOLECULAR_FORMULA>
C6H15N3

> <PUBCHEM_MOLECULAR_WEIGHT>
129.2

> <PUBCHEM_OPENEYE_CAN_SMILES>
C1CN1CCNCCN

> <PUBCHEM_OPENEYE_ISO_SMILES>
C1CN1CCNCCN

> <PUBCHEM_CACTVS_TPSA>
41.1

> <PUBCHEM_MONOISOTOPIC_WEIGHT>
129.126598

> <PUBCHEM_TOTAL_CHARGE>
0

> <PUBCHEM_HEAVY_ATOM_COUNT>
9

> <PUBCHEM_ATOM_DEF_STEREO_COUNT>
0

> <PUBCHEM_ATOM_UDEF_STEREO_COUNT>
0

> <PUBCHEM_BOND_DEF_STEREO_COUNT>
0

> <PUBCHEM_BOND_UDEF_STEREO_COUNT>
0

> <PUBCHEM_ISOTOPIC_ATOM_COUNT>
0

> <PUBCHEM_COMPONENT_COUNT>
1

> <PUBCHEM_CACTVS_TAUTO_COUNT>
-1

> <PUBCHEM_COORDINATE_TYPE>
1
5
255

$$$$
