9962075
  -OEChem-05262008352D

117116  0     1  0  0  0  0  0999 V2000
   21.9186    0.2500    0.0000 Cl  0  0  0  0  0  0  0  0  0  0  0  0
   14.9904    1.2500    0.0000 O   0  0  0  0  0  0  0  0  0  0  0  0
   12.3923   -1.2500    0.0000 O   0  0  0  0  0  0  0  0  0  0  0  0
   17.5885   -1.2500    0.0000 O   0  0  0  0  0  0  0  0  0  0  0  0
    9.7942    1.2500    0.0000 O   0  0  0  0  0  0  0  0  0  0  0  0
   20.1865    1.2500    0.0000 O   0  0  0  0  0  0  0  0  0  0  0  0
   13.2583    0.2500    0.0000 N   0  0  0  0  0  0  0  0  0  0  0  0
   15.8564   -0.2500    0.0000 N   0  0  0  0  0  0  0  0  0  0  0  0
   10.6603   -0.2500    0.0000 N   0  0  0  0  0  0  0  0  0  0  0  0
   18.4545    0.2500    0.0000 N   0  0  0  0  0  0  0  0  0  0  0  0
   18.4545    4.2500    0.0000 N   0  0  0  0  0  0  0  0  0  0  0  0
    9.7942    3.2500    0.0000 N   0  0  0  0  0  0  0  0  0  0  0  0
   21.0526   -3.2500    0.0000 N   0  0  0  0  0  0  0  0  0  0  0  0
    8.9282    4.7500    0.0000 N   0  0  0  0  0  0  0  0  0  0  0  0
   10.6603    4.7500    0.0000 N   0  0  0  0  0  0  0  0  0  0  0  0
   21.9186   -4.7500    0.0000 N   0  0  0  0  0  0  0  0  0  0  0  0
   20.1865   -4.7500    0.0000 N   0  0  0  0  0  0  0  0  0  0  0  0
   14.1244   -0.2500    0.0000 C   0  0  1  0  0  0  0  0  0  0  0  0
   14.1244   -1.2500    0.0000 C   0  0  0  0  0  0  0  0  0  0  0  0
   16.7224    0.2500    0.0000 C   0  0  1  0  0  0  0  0  0  0  0  0
   16.7224    1.2500    0.0000 C   0  0  0  0  0  0  0  0  0  0  0  0
   11.5263    0.2500    0.0000 C   0  0  1  0  0  0  0  0  0  0  0  0
   14.9904    0.2500    0.0000 C   0  0  0  0  0  0  0  0  0  0  0  0
   17.5885    1.7500    0.0000 C   0  0  0  0  0  0  0  0  0  0  0  0
   11.5263    1.2500    0.0000 C   0  0  0  0  0  0  0  0  0  0  0  0
   12.3923   -0.2500    0.0000 C   0  0  0  0  0  0  0  0  0  0  0  0
   17.5885   -0.2500    0.0000 C   0  0  0  0  0  0  0  0  0  0  0  0
   13.2583   -1.7500    0.0000 C   0  0  0  0  0  0  0  0  0  0  0  0
   14.9904   -1.7500    0.0000 C   0  0  0  0  0  0  0  0  0  0  0  0
   19.3205   -0.2500    0.0000 C   0  0  1  0  0  0  0  0  0  0  0  0
   17.5885    2.7500    0.0000 C   0  0  0  0  0  0  0  0  0  0  0  0
    7.1962   -0.2500    0.0000 C   0  0  0  0  0  0  0  0  0  0  0  0
    6.3301    0.2500    0.0000 C   0  0  0  0  0  0  0  0  0  0  0  0
    8.0622    0.2500    0.0000 C   0  0  0  0  0  0  0  0  0  0  0  0
   10.6603    1.7500    0.0000 C   0  0  0  0  0  0  0  0  0  0  0  0
    5.4641   -0.2500    0.0000 C   0  0  0  0  0  0  0  0  0  0  0  0
    8.9282   -0.2500    0.0000 C   0  0  0  0  0  0  0  0  0  0  0  0
   19.3205   -1.2500    0.0000 C   0  0  0  0  0  0  0  0  0  0  0  0
    4.5981    0.2500    0.0000 C   0  0  0  0  0  0  0  0  0  0  0  0
    9.7942    0.2500    0.0000 C   0  0  0  0  0  0  0  0  0  0  0  0
   18.4545    3.2500    0.0000 C   0  0  0  0  0  0  0  0  0  0  0  0
    3.7320   -0.2500    0.0000 C   0  0  0  0  0  0  0  0  0  0  0  0
   20.1865   -1.7500    0.0000 C   0  0  0  0  0  0  0  0  0  0  0  0
   10.6603    2.7500    0.0000 C   0  0  0  0  0  0  0  0  0  0  0  0
   20.1865    0.2500    0.0000 C   0  0  0  0  0  0  0  0  0  0  0  0
    2.8660    0.2500    0.0000 C   0  0  0  0  0  0  0  0  0  0  0  0
   20.1865   -2.7500    0.0000 C   0  0  0  0  0  0  0  0  0  0  0  0
   21.0526   -0.2500    0.0000 C   0  0  0  0  0  0  0  0  0  0  0  0
    2.0000   -0.2500    0.0000 C   0  0  0  0  0  0  0  0  0  0  0  0
    9.7942    4.2500    0.0000 C   0  0  0  0  0  0  0  0  0  0  0  0
   21.0526   -4.2500    0.0000 C   0  0  0  0  0  0  0  0  0  0  0  0
   14.1244    0.3700    0.0000 H   0  0  0  0  0  0  0  0  0  0  0  0
   13.5874   -0.9400    0.0000 H   0  0  0  0  0  0  0  0  0  0  0  0
   16.1855    0.5600    0.0000 H   0  0  0  0  0  0  0  0  0  0  0  0
   16.5104    1.8326    0.0000 H   0  0  0  0  0  0  0  0  0  0  0  0
   16.1119    1.1423    0.0000 H   0  0  0  0  0  0  0  0  0  0  0  0
   10.9893    0.5600    0.0000 H   0  0  0  0  0  0  0  0  0  0  0  0
   13.2583    0.8700    0.0000 H   0  0  0  0  0  0  0  0  0  0  0  0
   15.8564   -0.8700    0.0000 H   0  0  0  0  0  0  0  0  0  0  0  0
   17.8005    1.1674    0.0000 H   0  0  0  0  0  0  0  0  0  0  0  0
   18.1990    1.8577    0.0000 H   0  0  0  0  0  0  0  0  0  0  0  0
   12.1369    1.1423    0.0000 H   0  0  0  0  0  0  0  0  0  0  0  0
   11.7383    1.8326    0.0000 H   0  0  0  0  0  0  0  0  0  0  0  0
   12.9483   -1.2131    0.0000 H   0  0  0  0  0  0  0  0  0  0  0  0
   12.7214   -2.0600    0.0000 H   0  0  0  0  0  0  0  0  0  0  0  0
   13.5683   -2.2869    0.0000 H   0  0  0  0  0  0  0  0  0  0  0  0
   14.6804   -2.2869    0.0000 H   0  0  0  0  0  0  0  0  0  0  0  0
   15.5273   -2.0600    0.0000 H   0  0  0  0  0  0  0  0  0  0  0  0
   15.3004   -1.2131    0.0000 H   0  0  0  0  0  0  0  0  0  0  0  0
   18.7836   -0.5600    0.0000 H   0  0  0  0  0  0  0  0  0  0  0  0
   17.3764    3.3326    0.0000 H   0  0  0  0  0  0  0  0  0  0  0  0
   16.9779    2.6423    0.0000 H   0  0  0  0  0  0  0  0  0  0  0  0
    6.7976   -0.7249    0.0000 H   0  0  0  0  0  0  0  0  0  0  0  0
    7.5947   -0.7249    0.0000 H   0  0  0  0  0  0  0  0  0  0  0  0
    6.7287    0.7249    0.0000 H   0  0  0  0  0  0  0  0  0  0  0  0
    5.9316    0.7249    0.0000 H   0  0  0  0  0  0  0  0  0  0  0  0
    8.4607    0.7249    0.0000 H   0  0  0  0  0  0  0  0  0  0  0  0
    7.6636    0.7249    0.0000 H   0  0  0  0  0  0  0  0  0  0  0  0
   10.6603   -0.8700    0.0000 H   0  0  0  0  0  0  0  0  0  0  0  0
   18.4545    0.8700    0.0000 H   0  0  0  0  0  0  0  0  0  0  0  0
   10.0497    1.8577    0.0000 H   0  0  0  0  0  0  0  0  0  0  0  0
   10.4482    1.1674    0.0000 H   0  0  0  0  0  0  0  0  0  0  0  0
    5.0656   -0.7249    0.0000 H   0  0  0  0  0  0  0  0  0  0  0  0
    5.8626   -0.7249    0.0000 H   0  0  0  0  0  0  0  0  0  0  0  0
    8.5297   -0.7249    0.0000 H   0  0  0  0  0  0  0  0  0  0  0  0
    9.3267   -0.7249    0.0000 H   0  0  0  0  0  0  0  0  0  0  0  0
   18.7099   -1.1423    0.0000 H   0  0  0  0  0  0  0  0  0  0  0  0
   19.1085   -1.8326    0.0000 H   0  0  0  0  0  0  0  0  0  0  0  0
    4.9966    0.7249    0.0000 H   0  0  0  0  0  0  0  0  0  0  0  0
    4.1996    0.7249    0.0000 H   0  0  0  0  0  0  0  0  0  0  0  0
   18.6665    2.6674    0.0000 H   0  0  0  0  0  0  0  0  0  0  0  0
   19.0651    3.3577    0.0000 H   0  0  0  0  0  0  0  0  0  0  0  0
    3.3335   -0.7249    0.0000 H   0  0  0  0  0  0  0  0  0  0  0  0
    4.1306   -0.7249    0.0000 H   0  0  0  0  0  0  0  0  0  0  0  0
   20.7971   -1.8577    0.0000 H   0  0  0  0  0  0  0  0  0  0  0  0
   20.3986   -1.1674    0.0000 H   0  0  0  0  0  0  0  0  0  0  0  0
   11.2708    2.6423    0.0000 H   0  0  0  0  0  0  0  0  0  0  0  0
   10.8723    3.3326    0.0000 H   0  0  0  0  0  0  0  0  0  0  0  0
    3.2646    0.7249    0.0000 H   0  0  0  0  0  0  0  0  0  0  0  0
    2.4675    0.7249    0.0000 H   0  0  0  0  0  0  0  0  0  0  0  0
   19.5760   -2.6423    0.0000 H   0  0  0  0  0  0  0  0  0  0  0  0
   19.9745   -3.3326    0.0000 H   0  0  0  0  0  0  0  0  0  0  0  0
   20.6540   -0.7249    0.0000 H   0  0  0  0  0  0  0  0  0  0  0  0
   21.4511   -0.7249    0.0000 H   0  0  0  0  0  0  0  0  0  0  0  0
   18.9914    4.5600    0.0000 H   0  0  0  0  0  0  0  0  0  0  0  0
   17.9175    4.5600    0.0000 H   0  0  0  0  0  0  0  0  0  0  0  0
    1.6900    0.2869    0.0000 H   0  0  0  0  0  0  0  0  0  0  0  0
    1.4631   -0.5600    0.0000 H   0  0  0  0  0  0  0  0  0  0  0  0
    2.3100   -0.7869    0.0000 H   0  0  0  0  0  0  0  0  0  0  0  0
    8.9282    5.3700    0.0000 H   0  0  0  0  0  0  0  0  0  0  0  0
    8.3913    4.4400    0.0000 H   0  0  0  0  0  0  0  0  0  0  0  0
   10.6603    5.3700    0.0000 H   0  0  0  0  0  0  0  0  0  0  0  0
   11.1972    4.4400    0.0000 H   0  0  0  0  0  0  0  0  0  0  0  0
   21.9186   -5.3700    0.0000 H   0  0  0  0  0  0  0  0  0  0  0  0
   22.4555   -4.4400    0.0000 H   0  0  0  0  0  0  0  0  0  0  0  0
   20.1865   -5.3700    0.0000 H   0  0  0  0  0  0  0  0  0  0  0  0
   19.6496   -4.4400    0.0000 H   0  0  0  0  0  0  0  0  0  0  0  0
  1 48  1  0  0  0  0
  2 23  2  0  0  0  0
  3 26  2  0  0  0  0
  4 27  2  0  0  0  0
  5 40  2  0  0  0  0
  6 45  2  0  0  0  0
 18  7  1  6  0  0  0
  7 26  1  0  0  0  0
  7 58  1  0  0  0  0
 20  8  1  1  0  0  0
  8 23  1  0  0  0  0
  8 59  1  0  0  0  0
 22  9  1  1  0  0  0
  9 40  1  0  0  0  0
  9 79  1  0  0  0  0
 10 27  1  0  0  0  0
 30 10  1  6  0  0  0
 10 80  1  0  0  0  0
 11 41  1  0  0  0  0
 11105  1  0  0  0  0
 11106  1  0  0  0  0
 12 44  1  0  0  0  0
 12 50  2  0  0  0  0
 13 47  1  0  0  0  0
 13 51  2  0  0  0  0
 14 50  1  0  0  0  0
 14110  1  0  0  0  0
 14111  1  0  0  0  0
 15 50  1  0  0  0  0
 15112  1  0  0  0  0
 15113  1  0  0  0  0
 16 51  1  0  0  0  0
 16114  1  0  0  0  0
 16115  1  0  0  0  0
 17 51  1  0  0  0  0
 17116  1  0  0  0  0
 17117  1  0  0  0  0
 18 19  1  0  0  0  0
 18 23  1  0  0  0  0
 18 52  1  0  0  0  0
 19 28  1  0  0  0  0
 19 29  1  0  0  0  0
 19 53  1  0  0  0  0
 20 21  1  0  0  0  0
 20 27  1  0  0  0  0
 20 54  1  0  0  0  0
 21 24  1  0  0  0  0
 21 55  1  0  0  0  0
 21 56  1  0  0  0  0
 22 25  1  0  0  0  0
 22 26  1  0  0  0  0
 22 57  1  0  0  0  0
 24 31  1  0  0  0  0
 24 60  1  0  0  0  0
 24 61  1  0  0  0  0
 25 35  1  0  0  0  0
 25 62  1  0  0  0  0
 25 63  1  0  0  0  0
 28 64  1  0  0  0  0
 28 65  1  0  0  0  0
 28 66  1  0  0  0  0
 29 67  1  0  0  0  0
 29 68  1  0  0  0  0
 29 69  1  0  0  0  0
 30 38  1  0  0  0  0
 30 45  1  0  0  0  0
 30 70  1  0  0  0  0
 31 41  1  0  0  0  0
 31 71  1  0  0  0  0
 31 72  1  0  0  0  0
 32 33  1  0  0  0  0
 32 34  1  0  0  0  0
 32 73  1  0  0  0  0
 32 74  1  0  0  0  0
 33 36  1  0  0  0  0
 33 75  1  0  0  0  0
 33 76  1  0  0  0  0
 34 37  1  0  0  0  0
 34 77  1  0  0  0  0
 34 78  1  0  0  0  0
 35 44  1  0  0  0  0
 35 81  1  0  0  0  0
 35 82  1  0  0  0  0
 36 39  1  0  0  0  0
 36 83  1  0  0  0  0
 36 84  1  0  0  0  0
 37 40  1  0  0  0  0
 37 85  1  0  0  0  0
 37 86  1  0  0  0  0
 38 43  1  0  0  0  0
 38 87  1  0  0  0  0
 38 88  1  0  0  0  0
 39 42  1  0  0  0  0
 39 89  1  0  0  0  0
 39 90  1  0  0  0  0
 41 91  1  0  0  0  0
 41 92  1  0  0  0  0
 42 46  1  0  0  0  0
 42 93  1  0  0  0  0
 42 94  1  0  0  0  0
 43 47  1  0  0  0  0
 43 95  1  0  0  0  0
 43 96  1  0  0  0  0
 44 97  1  0  0  0  0
 44 98  1  0  0  0  0
 45 48  1  0  0  0  0
 46 49  1  0  0  0  0
 46 99  1  0  0  0  0
 46100  1  0  0  0  0
 47101  1  0  0  0  0
 47102  1  0  0  0  0
 48103  1  0  0  0  0
 48104  1  0  0  0  0
 49107  1  0  0  0  0
 49108  1  0  0  0  0
 49109  1  0  0  0  0
M  END
> <PUBCHEM_COMPOUND_CID>
9962075

> <PUBCHEM_COMPOUND_CANONICALIZED>
1

> <PUBCHEM_CACTVS_COMPLEXITY>
1100

> <PUBCHEM_CACTVS_HBOND_ACCEPTOR>
8

> <PUBCHEM_CACTVS_HBOND_DONOR>
9

> <PUBCHEM_CACTVS_ROTATABLE_BOND>
30

> <PUBCHEM_CACTVS_SUBSKEYS>
AAADcfB/+AAEAAAAAAAAAAAAAAAAAAAAAAAAAAAAAAAAAAAAAAAAHgIQAAAADS/BgEQDAALAAAAoAIEQNAAAAAEAAAAAAIGIAgBAQBIBgCAUAAAAFgCAAAEYiYCIAAAAAAAAAAAAAAAAAAAAAAAAAAAAAA==

> <PUBCHEM_IUPAC_OPENEYE_NAME>
N-[(1S)-1-[[(1S)-1-[[(1S)-5-amino-1-[[(1S)-1-(2-chloroacetyl)-4-guanidino-butyl]carbamoyl]pentyl]carbamoyl]-2-methyl-propyl]carbamoyl]-4-guanidino-butyl]decanamide

> <PUBCHEM_IUPAC_CAS_NAME>
N-[(2S)-1-[[(2S)-1-[[(2S)-6-amino-1-[[(3S)-1-chloro-6-(diaminomethylideneamino)-2-oxohexan-3-yl]amino]-1-oxohexan-2-yl]amino]-3-methyl-1-oxobutan-2-yl]amino]-5-(diaminomethylideneamino)-1-oxopentan-2-yl]decanamide

> <PUBCHEM_IUPAC_NAME_MARKUP>
<I>N</I>-[(2<I>S</I>)-1-[[(2<I>S</I>)-1-[[(2<I>S</I>)-6-amino-1-[[(3<I>S</I>)-1-chloro-6-(diaminomethylideneamino)-2-oxohexan-3-yl]amino]-1-oxohexan-2-yl]amino]-3-methyl-1-oxobutan-2-yl]amino]-5-(diaminomethylideneamino)-1-oxopentan-2-yl]decanamide

> <PUBCHEM_IUPAC_NAME>
N-[(2S)-1-[[(2S)-1-[[(2S)-6-amino-1-[[(3S)-1-chloro-6-(diaminomethylideneamino)-2-oxohexan-3-yl]amino]-1-oxohexan-2-yl]amino]-3-methyl-1-oxobutan-2-yl]amino]-5-(diaminomethylideneamino)-1-oxopentan-2-yl]decanamide

> <PUBCHEM_IUPAC_SYSTEMATIC_NAME>
N-[(2S)-1-[[(2S)-1-[[(2S)-6-azanyl-1-[[(3S)-6-[bis(azanyl)methylideneamino]-1-chloranyl-2-oxidanylidene-hexan-3-yl]amino]-1-oxidanylidene-hexan-2-yl]amino]-3-methyl-1-oxidanylidene-butan-2-yl]amino]-5-[bis(azanyl)methylideneamino]-1-oxidanylidene-pentan-2-yl]decanamide

> <PUBCHEM_IUPAC_TRADITIONAL_NAME>
N-[(1S)-1-[[(1S)-1-[[(1S)-5-amino-1-[[(1S)-1-(2-chloroacetyl)-4-guanidino-butyl]carbamoyl]pentyl]carbamoyl]-2-methyl-propyl]carbamoyl]-4-guanidino-butyl]capramide

> <PUBCHEM_IUPAC_INCHI>
InChI=1S/C34H66ClN11O5/c1-4-5-6-7-8-9-10-18-28(48)43-25(17-14-21-42-34(39)40)31(50)46-29(23(2)3)32(51)45-26(15-11-12-19-36)30(49)44-24(27(47)22-35)16-13-20-41-33(37)38/h23-26,29H,4-22,36H2,1-3H3,(H,43,48)(H,44,49)(H,45,51)(H,46,50)(H4,37,38,41)(H4,39,40,42)/t24-,25-,26-,29-/m0/s1

> <PUBCHEM_IUPAC_INCHIKEY>
NHBJTTGFHCHQHS-VZTVMPNDSA-N

> <PUBCHEM_XLOGP3_AA>
2

> <PUBCHEM_EXACT_MASS>
743.493692

> <PUBCHEM_MOLECULAR_FORMULA>
C34H66ClN11O5

> <PUBCHEM_MOLECULAR_WEIGHT>
744.4

> <PUBCHEM_OPENEYE_CAN_SMILES>
CCCCCCCCCC(=O)NC(CCCN=C(N)N)C(=O)NC(C(C)C)C(=O)NC(CCCCN)C(=O)NC(CCCN=C(N)N)C(=O)CCl

> <PUBCHEM_OPENEYE_ISO_SMILES>
CCCCCCCCCC(=O)N[C@@H](CCCN=C(N)N)C(=O)N[C@@H](C(C)C)C(=O)N[C@@H](CCCCN)C(=O)N[C@@H](CCCN=C(N)N)C(=O)CCl

> <PUBCHEM_CACTVS_TPSA>
288

> <PUBCHEM_MONOISOTOPIC_WEIGHT>
743.493692

> <PUBCHEM_TOTAL_CHARGE>
0

> <PUBCHEM_HEAVY_ATOM_COUNT>
51

> <PUBCHEM_ATOM_DEF_STEREO_COUNT>
4

> <PUBCHEM_ATOM_UDEF_STEREO_COUNT>
0

> <PUBCHEM_BOND_DEF_STEREO_COUNT>
0

> <PUBCHEM_BOND_UDEF_STEREO_COUNT>
0

> <PUBCHEM_ISOTOPIC_ATOM_COUNT>
0

> <PUBCHEM_COMPONENT_COUNT>
1

> <PUBCHEM_CACTVS_TAUTO_COUNT>
-1

> <PUBCHEM_COORDINATE_TYPE>
1
5
255

> <PUBCHEM_BONDANNOTATIONS>
30  10  6
18  7  6
20  8  5
22  9  5

$$$$
